REMARK  Name = 
REMARK  8 active torsions:
REMARK  status: ('A' for Active; 'I' for Inactive)
REMARK    1  A    between atoms: C_1  and  O_2
REMARK    2  A    between atoms: O_2  and  C_3
REMARK    3  A    between atoms: C_8  and  C_9
REMARK    4  A    between atoms: C_12  and  C_13
REMARK    5  A    between atoms: N_15  and  C_16
REMARK    6  A    between atoms: C_16  and  C_17
REMARK    7  A    between atoms: C_17  and  C_18
REMARK    8  A    between atoms: C_19  and  C_20
REMARK                            x       y       z     vdW  Elec       q    Type
REMARK                         _______ _______ _______ _____ _____    ______ ____
ROOT
ATOM      1  C   UNL     1       4.638  -6.677   0.681  0.00  0.00    +0.000 C 
ATOM      2  O   UNL     1       5.369  -7.594   0.192  0.00  0.00    +0.000 OA
ATOM      3  N   UNL     1       4.148  -6.786   2.063  0.00  0.00    +0.000 N 
ATOM      4  H   UNL     1       4.394  -7.598   2.629  0.00  0.00    +0.000 HD
ENDROOT
BRANCH   1   8
ATOM      5  C   UNL     1       2.267  -2.241   0.148  0.00  0.00    +0.000 A 
ATOM      6  C   UNL     1       3.095  -3.280  -0.407  0.00  0.00    +0.000 A 
ATOM      7  C   UNL     1       3.443  -4.427   0.393  0.00  0.00    +0.000 A 
ATOM      8  C   UNL     1       4.271  -5.467  -0.162  0.00  0.00    +0.000 A 
ATOM      9  C   UNL     1       4.751  -5.360  -1.516  0.00  0.00    +0.000 A 
ATOM     10  C   UNL     1       1.919  -1.094  -0.651  0.00  0.00    +0.000 A 
BRANCH   5  16
ATOM     11  C   UNL     1       0.932  -1.313   2.131  0.00  0.00    +0.000 A 
ATOM     12  C   UNL     1       0.452  -1.420   3.485  0.00  0.00    +0.000 A 
ATOM     13  C   UNL     1      -0.376  -0.380   4.039  0.00  0.00    +0.000 A 
ATOM     14  C   UNL     1      -0.856  -0.487   5.393  0.00  0.00    +0.000 A 
ATOM     15  C   UNL     1      -1.684   0.553   5.947  0.00  0.00    +0.000 A 
ATOM     16  C   UNL     1       1.760  -2.353   1.577  0.00  0.00    +0.000 A 
BRANCH  11  18
ATOM     17  C   UNL     1       1.062  -0.078   0.008  0.00  0.00    +0.000 C 
ATOM     18  O   UNL     1       0.589  -0.183   1.343  0.00  0.00    +0.000 OA
ENDBRANCH  11  18
ENDBRANCH   5  16
ENDBRANCH   1   8
BRANCH   3  19
ATOM     19  C   UNL     1       3.303  -5.724   2.629  0.00  0.00    +0.000 C 
BRANCH  19  20
ATOM     20  C   UNL     1       1.960  -6.309   3.037  0.00  0.00    +0.000 C 
BRANCH  20  21
ATOM     21  C   UNL     1       2.176  -7.395   4.078  0.00  0.00    +0.000 A 
ATOM     22  C   UNL     1       2.976  -8.549   3.760  0.00  0.00    +0.000 A 
ATOM     23  C   UNL     1       3.605  -8.682   2.383  0.00  0.00    +0.000 C 
ATOM     24  N   UNL     1       3.173  -9.544   4.715  0.00  0.00    +0.000 N 
ATOM     25  C   UNL     1       2.597  -9.423   5.977  0.00  0.00    +0.000 A 
ATOM     26  C   UNL     1       1.796  -8.268   6.295  0.00  0.00    +0.000 A 
ATOM     27  C   UNL     1       1.592  -7.239   5.308  0.00  0.00    +0.000 A 
ATOM     28  C   UNL     1       0.792  -6.085   5.626  0.00  0.00    +0.000 A 
ATOM     29  C   UNL     1       0.588  -5.056   4.639  0.00  0.00    +0.000 A 
ATOM     30  C   UNL     1       2.801 -10.451   6.964  0.00  0.00    +0.000 A 
ATOM     31  H   UNL     1       3.740 -10.362   4.490  0.00  0.00    +0.000 HD
ENDBRANCH  20  21
ENDBRANCH  19  20
ENDBRANCH   3  19
TORSDOF 6
