REMARK  Name = 
REMARK  6 active torsions:
REMARK  status: ('A' for Active; 'I' for Inactive)
REMARK    1  A    between atoms: C_1  and  C_2
REMARK    2  A    between atoms: C_2  and  C_4
REMARK    3  A    between atoms: C_7  and  N_8
REMARK    4  A    between atoms: N_11  and  C_12
REMARK    5  A    between atoms: C_15  and  N_16
REMARK    6  A    between atoms: C_20  and  C_21
REMARK                            x       y       z     vdW  Elec       q    Type
REMARK                         _______ _______ _______ _____ _____    ______ ____
ROOT
ATOM      1  N   UNL     1      -1.722   4.904   3.525  0.00  0.00    +0.000 N 
ATOM      2  C   UNL     1      -2.213   5.877   4.513  0.00  0.00    +0.000 C 
ATOM      3  O   UNL     1      -2.943   6.847   4.140  0.00  0.00    +0.000 OA
ATOM      4  N   UNL     1      -1.857   5.726   5.931  0.00  0.00    +0.000 N 
ATOM      5  H   UNL     1      -1.969   5.009   2.541  0.00  0.00    +0.000 HD
ATOM      6  H   UNL     1      -2.197   6.400   6.616  0.00  0.00    +0.000 HD
ENDROOT
BRANCH   4   7
ATOM      7  C   UNL     1      -1.012   4.603   6.362  0.00  0.00    +0.000 A 
ATOM      8  C   UNL     1      -0.532   3.650   5.394  0.00  0.00    +0.000 A 
ATOM      9  C   UNL     1      -0.880   3.798   4.004  0.00  0.00    +0.000 A 
ATOM     10  C   UNL     1      -0.400   2.845   3.037  0.00  0.00    +0.000 A 
ATOM     11  C   UNL     1       0.428   1.745   3.459  0.00  0.00    +0.000 A 
ATOM     12  C   UNL     1      -0.664   4.455   7.752  0.00  0.00    +0.000 A 
ATOM     13  C   UNL     1      -1.171   5.460   8.773  0.00  0.00    +0.000 C 
BRANCH  10  14
ATOM     14  N   UNL     1      -0.755   2.996   1.618  0.00  0.00    +0.000 N 
ATOM     15  O   UNL     1      -0.346   2.185   0.794  0.00  0.00    +0.000 OA
ATOM     16  O   UNL     1      -1.543   4.043   1.217  0.00  0.00    +0.000 OA
ENDBRANCH  10  14
ENDBRANCH   4   7
BRANCH   1  20
ATOM     17  C   UNL     1       0.911   0.776   2.442  0.00  0.00    +0.000 A 
ATOM     18  C   UNL     1       0.431   1.729   3.410  0.00  0.00    +0.000 A 
ATOM     19  C   UNL     1      -0.397   2.829   2.988  0.00  0.00    +0.000 A 
ATOM     20  C   UNL     1      -0.877   3.781   3.956  0.00  0.00    +0.000 A 
ATOM     21  C   UNL     1      -0.529   3.634   5.345  0.00  0.00    +0.000 A 
ATOM     22  C   UNL     1       1.739  -0.324   2.864  0.00  0.00    +0.000 A 
BRANCH  17  24
ATOM     23  C   UNL     1       1.050  -0.073  -0.046  0.00  0.00    +0.000 C 
ATOM     24  C   UNL     1       0.544   0.932   0.976  0.00  0.00    +0.000 C 
ATOM     25  O   UNL     1      -0.187   1.903   0.603  0.00  0.00    +0.000 OA
ENDBRANCH  17  24
ENDBRANCH   1  20
TORSDOF 4
