REMARK  Name = 
REMARK  6 active torsions:
REMARK  status: ('A' for Active; 'I' for Inactive)
REMARK    1  A    between atoms: C_1  and  C_2
REMARK    2  A    between atoms: C_6  and  C_7
REMARK    3  A    between atoms: N_9  and  N_10
REMARK    4  A    between atoms: N_10  and  C_11
REMARK    5  A    between atoms: C_11  and  N_13
REMARK    6  A    between atoms: C_14  and  C_16
REMARK                            x       y       z     vdW  Elec       q    Type
REMARK                         _______ _______ _______ _____ _____    ______ ____
ROOT
ATOM      1  N   UNL     1       4.466  -5.768  -3.280  0.00  0.00    +0.000 N 
ATOM      2  H   UNL     1       4.126  -6.384  -2.542  0.00  0.00    +0.000 HD
ENDROOT
BRANCH   1   5
ATOM      3  C   UNL     1       3.277  -3.851  -2.195  0.00  0.00    +0.000 C 
ATOM      4  O   UNL     1       2.970  -2.618  -2.185  0.00  0.00    +0.000 OA
ATOM      5  N   UNL     1       4.122  -4.390  -3.270  0.00  0.00    +0.000 N 
ATOM      6  H   UNL     1       4.462  -3.775  -4.009  0.00  0.00    +0.000 HD
BRANCH   3  12
ATOM      7  C   UNL     1       0.926  -0.000  -0.067  0.00  0.00    +0.000 C 
ATOM      8  C   UNL     1       0.419  -0.918   1.034  0.00  0.00    +0.000 A 
ATOM      9  C   UNL     1       0.767  -2.315   1.024  0.00  0.00    +0.000 A 
ATOM     10  C   UNL     1       1.595  -2.843  -0.030  0.00  0.00    +0.000 A 
ATOM     11  C   UNL     1       1.943  -4.241  -0.040  0.00  0.00    +0.000 A 
ATOM     12  C   UNL     1       2.771  -4.769  -1.094  0.00  0.00    +0.000 A 
ATOM     13  C   UNL     1      -0.409  -0.390   2.087  0.00  0.00    +0.000 A 
ENDBRANCH   3  12
ENDBRANCH   1   5
BRANCH   1  14
ATOM     14  C   UNL     1       5.311  -6.307  -4.355  0.00  0.00    +0.000 C 
ATOM     15  S   UNL     1       5.702  -7.879  -4.367  0.00  0.00    +0.000 S 
BRANCH  14  16
ATOM     16  N   UNL     1       5.801  -5.420  -5.420  0.00  0.00    +0.000 N 
ATOM     17  C   UNL     1       5.446  -3.993  -5.409  0.00  0.00    +0.000 C 
ATOM     18  O   UNL     1       5.869  -3.226  -6.330  0.00  0.00    +0.000 OA
ATOM     19  H   UNL     1       6.387  -5.794  -6.166  0.00  0.00    +0.000 HD
BRANCH  17  20
ATOM     20  C   UNL     1       4.572  -3.436  -4.297  0.00  0.00    +0.000 A 
ATOM     21  C   UNL     1       4.224  -2.039  -4.287  0.00  0.00    +0.000 A 
ATOM     22  C   UNL     1       4.704  -1.169  -5.330  0.00  0.00    +0.000 A 
ATOM     23  C   UNL     1       4.356   0.228  -5.319  0.00  0.00    +0.000 A 
ATOM     24  C   UNL     1       4.836   1.098  -6.362  0.00  0.00    +0.000 A 
ATOM     25  C   UNL     1       4.092  -4.305  -3.254  0.00  0.00    +0.000 A 
ENDBRANCH  17  20
ENDBRANCH  14  16
ENDBRANCH   1  14
TORSDOF 5
