REMARK  Name = 
REMARK  6 active torsions:
REMARK  status: ('A' for Active; 'I' for Inactive)
REMARK    1  A    between atoms: C_1  and  C_2
REMARK    2  A    between atoms: C_7  and  C_8
REMARK    3  A    between atoms: N_10  and  N_11
REMARK    4  A    between atoms: N_11  and  C_12
REMARK    5  A    between atoms: C_12  and  N_14
REMARK    6  A    between atoms: C_15  and  C_17
REMARK                            x       y       z     vdW  Elec       q    Type
REMARK                         _______ _______ _______ _____ _____    ______ ____
ROOT
ATOM      1  C   UNL     1      -2.799   4.095   3.729  0.00  0.00    +0.000 C 
ATOM      2  S   UNL     1      -3.339   3.957   5.250  0.00  0.00    +0.000 S 
ENDROOT
BRANCH   1   3
ATOM      3  N   UNL     1      -3.154   5.275   2.927  0.00  0.00    +0.000 N 
ATOM      4  C   UNL     1      -2.664   5.400   1.547  0.00  0.00    +0.000 C 
ATOM      5  O   UNL     1      -2.971   6.420   0.854  0.00  0.00    +0.000 OA
ATOM      6  H   UNL     1      -3.741   6.007   3.328  0.00  0.00    +0.000 HD
BRANCH   4   7
ATOM      7  C   UNL     1      -1.790   4.310   0.948  0.00  0.00    +0.000 A 
ATOM      8  C   UNL     1      -1.310   4.433  -0.404  0.00  0.00    +0.000 A 
ATOM      9  C   UNL     1      -1.658   5.589  -1.189  0.00  0.00    +0.000 A 
ATOM     10  C   UNL     1      -1.178   5.712  -2.542  0.00  0.00    +0.000 A 
ATOM     11 CL   UNL     1      -1.608   7.140  -3.512  0.00  0.00    +0.000 Cl
ATOM     12  C   UNL     1      -0.350   4.678  -3.108  0.00  0.00    +0.000 A 
ATOM     13  C   UNL     1      -1.443   3.154   1.734  0.00  0.00    +0.000 A 
ATOM     14 CL   UNL     1      -2.036   3.002   3.405  0.00  0.00    +0.000 Cl
ENDBRANCH   4   7
ENDBRANCH   1   3
BRANCH   1  15
ATOM     15  N   UNL     1      -1.954   3.041   3.150  0.00  0.00    +0.000 N 
ATOM     16  H   UNL     1      -1.708   2.222   3.706  0.00  0.00    +0.000 HD
BRANCH  15  19
ATOM     17  C   UNL     1      -0.636   2.107   1.238  0.00  0.00    +0.000 C 
ATOM     18  O   UNL     1      -0.212   2.216   0.045  0.00  0.00    +0.000 OA
ATOM     19  N   UNL     1      -1.481   3.162   1.817  0.00  0.00    +0.000 N 
ATOM     20  H   UNL     1      -1.727   3.980   1.260  0.00  0.00    +0.000 HD
BRANCH  17  27
ATOM     21  C   UNL     1       1.066  -0.016   0.073  0.00  0.00    +0.000 C 
ATOM     22  C   UNL     1       0.560  -0.146   1.500  0.00  0.00    +0.000 A 
ATOM     23  C   UNL     1       0.908  -1.302   2.286  0.00  0.00    +0.000 A 
ATOM     24  C   UNL     1       1.736  -2.335   1.719  0.00  0.00    +0.000 A 
ATOM     25  C   UNL     1       2.083  -3.491   2.504  0.00  0.00    +0.000 A 
ATOM     26  C   UNL     1       2.911  -4.524   1.938  0.00  0.00    +0.000 A 
ATOM     27  C   UNL     1      -0.268   0.887   2.067  0.00  0.00    +0.000 A 
ENDBRANCH  17  27
ENDBRANCH  15  19
ENDBRANCH   1  15
TORSDOF 5
