REMARK  Name = 
REMARK  7 active torsions:
REMARK  status: ('A' for Active; 'I' for Inactive)
REMARK    1  A    between atoms: C_1  and  O_2
REMARK    2  A    between atoms: O_2  and  C_3
REMARK    3  A    between atoms: C_5  and  C_6
REMARK    4  A    between atoms: N_7  and  N_8
REMARK    5  A    between atoms: C_9  and  C_11
REMARK    6  A    between atoms: C_14  and  C_15
REMARK    7  A    between atoms: C_26  and  O_27
REMARK                            x       y       z     vdW  Elec       q    Type
REMARK                         _______ _______ _______ _____ _____    ______ ____
ROOT
ATOM      1  N   UNL     1      -2.045  -2.373   4.821  0.00  0.00    +0.000 N 
ATOM      2  C   UNL     1      -1.555  -1.347   3.889  0.00  0.00    +0.000 C 
ATOM      3  O   UNL     1      -1.862  -0.127   4.068  0.00  0.00    +0.000 OA
ATOM      4  H   UNL     1      -2.631  -2.105   5.612  0.00  0.00    +0.000 HD
ENDROOT
BRANCH   2   5
ATOM      5  C   UNL     1      -0.681  -1.746   2.711  0.00  0.00    +0.000 A 
ATOM      6  C   UNL     1      -0.201  -0.741   1.798  0.00  0.00    +0.000 A 
ATOM      7  C   UNL     1      -0.549   0.642   2.001  0.00  0.00    +0.000 A 
ATOM      8  C   UNL     1      -0.069   1.647   1.088  0.00  0.00    +0.000 A 
ATOM      9  C   UNL     1       0.759   1.269  -0.028  0.00  0.00    +0.000 A 
ATOM     10  C   UNL     1      -0.333  -3.128   2.508  0.00  0.00    +0.000 A 
BRANCH   8  11
ATOM     11  C   UNL     1      -0.436   3.106   1.302  0.00  0.00    +0.000 A 
ATOM     12  C   UNL     1      -1.264   3.484   2.418  0.00  0.00    +0.000 A 
ATOM     13  C   UNL     1      -1.744   2.479   3.331  0.00  0.00    +0.000 A 
ATOM     14  C   UNL     1      -2.572   2.857   4.448  0.00  0.00    +0.000 A 
ATOM     15  C   UNL     1      -3.052   1.852   5.361  0.00  0.00    +0.000 A 
ATOM     16  C   UNL     1       0.044   4.111   0.389  0.00  0.00    +0.000 A 
ENDBRANCH   8  11
ENDBRANCH   2   5
BRANCH   1  18
ATOM     17  C   UNL     1      -0.945  -4.081   3.601  0.00  0.00    +0.000 C 
ATOM     18  N   UNL     1      -1.702  -3.736   4.621  0.00  0.00    +0.000 NA
BRANCH  17  21
ATOM     19  C   UNL     1       0.869  -2.393   0.608  0.00  0.00    +0.000 A 
ATOM     20  C   UNL     1       0.389  -3.398   1.521  0.00  0.00    +0.000 A 
ATOM     21  C   UNL     1      -0.439  -3.020   2.637  0.00  0.00    +0.000 A 
ATOM     22  C   UNL     1      -0.787  -1.638   2.840  0.00  0.00    +0.000 A 
ATOM     23  C   UNL     1      -0.306  -0.633   1.927  0.00  0.00    +0.000 A 
ATOM     24 BR   UNL     1       0.820  -1.147   0.408  0.00  0.00    +0.000 Br
ATOM     25  C   UNL     1       1.697  -2.771  -0.508  0.00  0.00    +0.000 A 
BRANCH  19  27
ATOM     26  C   UNL     1       1.000  -0.039  -0.092  0.00  0.00    +0.000 C 
ATOM     27  O   UNL     1       0.526  -1.030   0.808  0.00  0.00    +0.000 OA
ENDBRANCH  19  27
BRANCH  25  28
ATOM     28  O   UNL     1       2.171  -1.780  -1.408  0.00  0.00    +0.000 OA
ATOM     29  H   UNL     1       2.746  -2.042  -2.183  0.00  0.00    +0.000 HD
ENDBRANCH  25  28
ENDBRANCH  17  21
ENDBRANCH   1  18
TORSDOF 6
