REMARK  Name = 
REMARK  8 active torsions:
REMARK  status: ('A' for Active; 'I' for Inactive)
REMARK    1  A    between atoms: C_1  and  O_2
REMARK    2  A    between atoms: O_2  and  C_3
REMARK    3  A    between atoms: C_6  and  C_7
REMARK    4  A    between atoms: N_9  and  C_10
REMARK    5  A    between atoms: C_10  and  N_12
REMARK    6  A    between atoms: N_12  and  N_13
REMARK    7  A    between atoms: C_14  and  C_16
REMARK    8  A    between atoms: C_20  and  C_21
REMARK                            x       y       z     vdW  Elec       q    Type
REMARK                         _______ _______ _______ _____ _____    ______ ____
ROOT
ATOM      1  C   UNL     1      -1.581   1.304  -3.990  0.00  0.00    +0.000 C 
ATOM      2  S   UNL     1      -1.972  -0.243  -4.272  0.00  0.00    +0.000 S 
ENDROOT
BRANCH   1   5
ATOM      3  C   UNL     1      -1.716   3.765  -4.629  0.00  0.00    +0.000 C 
ATOM      4  O   UNL     1      -2.139   4.679  -5.404  0.00  0.00    +0.000 OA
ATOM      5  N   UNL     1      -2.071   2.361  -4.886  0.00  0.00    +0.000 N 
ATOM      6  H   UNL     1      -2.657   2.122  -5.685  0.00  0.00    +0.000 HD
BRANCH   3  10
ATOM      7  C   UNL     1       0.946   2.388  -0.554  0.00  0.00    +0.000 A 
ATOM      8  C   UNL     1       0.466   3.425  -1.432  0.00  0.00    +0.000 A 
ATOM      9  C   UNL     1      -0.362   3.086  -2.561  0.00  0.00    +0.000 A 
ATOM     10  C   UNL     1      -0.842   4.122  -3.438  0.00  0.00    +0.000 A 
ATOM     11  C   UNL     1      -0.494   5.497  -3.187  0.00  0.00    +0.000 A 
ATOM     12  C   UNL     1       1.774   2.727   0.574  0.00  0.00    +0.000 A 
BRANCH   7  14
ATOM     13  C   UNL     1       1.077   0.011   0.063  0.00  0.00    +0.000 C 
ATOM     14  O   UNL     1       0.603   1.033  -0.802  0.00  0.00    +0.000 OA
ENDBRANCH   7  14
ENDBRANCH   3  10
ENDBRANCH   1   5
BRANCH   1  15
ATOM     15  N   UNL     1      -0.736   1.649  -2.838  0.00  0.00    +0.000 N 
ATOM     16  H   UNL     1      -0.396   0.916  -2.216  0.00  0.00    +0.000 HD
BRANCH  15  17
ATOM     17  N   UNL     1      -0.393   3.005  -2.590  0.00  0.00    +0.000 N 
ATOM     18  C   UNL     1       0.453   3.351  -1.438  0.00  0.00    +0.000 C 
ATOM     19  O   UNL     1       0.760   4.564  -1.217  0.00  0.00    +0.000 OA
ATOM     20  H   UNL     1      -0.733   3.739  -3.212  0.00  0.00    +0.000 HD
BRANCH  18  21
ATOM     21  C   UNL     1       0.959   2.257  -0.512  0.00  0.00    +0.000 A 
ATOM     22  C   UNL     1       1.787   2.596   0.617  0.00  0.00    +0.000 A 
ATOM     23  C   UNL     1       2.135   3.971   0.868  0.00  0.00    +0.000 A 
ATOM     24  C   UNL     1       2.963   4.309   1.996  0.00  0.00    +0.000 A 
ATOM     25  C   UNL     1       3.311   5.684   2.247  0.00  0.00    +0.000 A 
ATOM     26  C   UNL     1       2.804   6.778   1.321  0.00  0.00    +0.000 C 
ATOM     27  C   UNL     1       0.611   0.882  -0.763  0.00  0.00    +0.000 A 
ENDBRANCH  18  21
ENDBRANCH  15  17
ENDBRANCH   1  15
TORSDOF 6
