REMARK  Name = 
REMARK  9 active torsions:
REMARK  status: ('A' for Active; 'I' for Inactive)
REMARK    1  A    between atoms: C_1  and  O_2
REMARK    2  A    between atoms: O_2  and  C_3
REMARK    3  A    between atoms: C_6  and  C_7
REMARK    4  A    between atoms: C_8  and  C_9
REMARK    5  A    between atoms: N_11  and  C_12
REMARK    6  A    between atoms: C_17  and  C_18
REMARK    7  A    between atoms: C_18  and  O_20
REMARK    8  A    between atoms: C_22  and  O_23
REMARK    9  A    between atoms: O_23  and  C_24
REMARK                            x       y       z     vdW  Elec       q    Type
REMARK                         _______ _______ _______ _____ _____    ______ ____
ROOT
ATOM      1  C   UNL     1      -3.172   6.903   4.231  0.00  0.00    +0.000 C 
ATOM      2  O   UNL     1      -3.596   7.704   5.123  0.00  0.00    +0.000 OA
ATOM      3  N   UNL     1      -3.527   7.118   2.821  0.00  0.00    +0.000 N 
ATOM      4  H   UNL     1      -4.113   7.910   2.558  0.00  0.00    +0.000 HD
ENDROOT
BRANCH   3   5
ATOM      5  C   UNL     1      -3.037   6.191   1.791  0.00  0.00    +0.000 A 
ATOM      6  C   UNL     1      -2.209   5.073   2.162  0.00  0.00    +0.000 A 
ATOM      7  C   UNL     1      -1.861   4.863   3.544  0.00  0.00    +0.000 A 
ATOM      8  C   UNL     1      -1.033   3.744   3.915  0.00  0.00    +0.000 A 
ATOM      9  C   UNL     1      -0.685   3.534   5.297  0.00  0.00    +0.000 A 
ATOM     10  C   UNL     1      -3.385   6.402   0.409  0.00  0.00    +0.000 A 
BRANCH  10  11
ATOM     11  C   UNL     1      -4.259   7.582   0.017  0.00  0.00    +0.000 C 
ATOM     12  O   UNL     1      -4.682   8.383   0.908  0.00  0.00    +0.000 OA
BRANCH  11  13
ATOM     13  O   UNL     1      -4.602   7.790  -1.346  0.00  0.00    +0.000 OA
ATOM     14  H   UNL     1      -5.177   8.566  -1.604  0.00  0.00    +0.000 HD
ENDBRANCH  11  13
ENDBRANCH  10  11
ENDBRANCH   3   5
BRANCH   1  16
ATOM     15  C   UNL     1      -1.845   4.865   3.670  0.00  0.00    +0.000 C 
ATOM     16  C   UNL     1      -2.298   5.723   4.624  0.00  0.00    +0.000 C 
BRANCH  15  20
ATOM     17  C   UNL     1       0.817   0.752   2.414  0.00  0.00    +0.000 A 
ATOM     18  C   UNL     1       0.337   1.659   3.424  0.00  0.00    +0.000 A 
ATOM     19  C   UNL     1      -0.491   2.777   3.052  0.00  0.00    +0.000 A 
ATOM     20  C   UNL     1      -0.971   3.685   4.062  0.00  0.00    +0.000 A 
ATOM     21  C   UNL     1      -0.623   3.474   5.444  0.00  0.00    +0.000 A 
ATOM     22  C   UNL     1       1.645  -0.367   2.786  0.00  0.00    +0.000 A 
BRANCH  17  24
ATOM     23  C   UNL     1       0.948   0.064   0.056  0.00  0.00    +0.000 C 
ATOM     24  O   UNL     1       0.474   0.959   1.052  0.00  0.00    +0.000 OA
ENDBRANCH  17  24
BRANCH  22  25
ATOM     25  O   UNL     1       2.119  -1.262   1.790  0.00  0.00    +0.000 OA
ATOM     26  C   UNL     1       2.935  -2.364   2.156  0.00  0.00    +0.000 C 
ENDBRANCH  22  25
ENDBRANCH  15  20
ENDBRANCH   1  16
TORSDOF 7
