REMARK  Name = 
REMARK  8 active torsions:
REMARK  status: ('A' for Active; 'I' for Inactive)
REMARK    1  A    between atoms: C_1  and  O_2
REMARK    2  A    between atoms: O_2  and  C_3
REMARK    3  A    between atoms: C_6  and  C_7
REMARK    4  A    between atoms: N_9  and  C_10
REMARK    5  A    between atoms: C_10  and  N_12
REMARK    6  A    between atoms: N_12  and  N_13
REMARK    7  A    between atoms: C_14  and  C_16
REMARK    8  A    between atoms: C_21  and  C_22
REMARK                            x       y       z     vdW  Elec       q    Type
REMARK                         _______ _______ _______ _____ _____    ______ ____
ROOT
ATOM      1  C   UNL     1      -1.742  -4.236  -0.446  0.00  0.00    +0.000 C 
ATOM      2  S   UNL     1      -2.133  -4.180   1.125  0.00  0.00    +0.000 S 
ENDROOT
BRANCH   1   5
ATOM      3  C   UNL     1      -1.877  -5.388  -2.713  0.00  0.00    +0.000 C 
ATOM      4  O   UNL     1      -2.301  -6.341  -3.440  0.00  0.00    +0.000 OA
ATOM      5  N   UNL     1      -2.232  -5.337  -1.287  0.00  0.00    +0.000 N 
ATOM      6  H   UNL     1      -2.819  -6.067  -0.881  0.00  0.00    +0.000 HD
BRANCH   3  10
ATOM      7  C   UNL     1       0.785  -1.113  -2.243  0.00  0.00    +0.000 A 
ATOM      8  C   UNL     1       0.305  -2.192  -3.066  0.00  0.00    +0.000 A 
ATOM      9  C   UNL     1      -0.523  -3.222  -2.493  0.00  0.00    +0.000 A 
ATOM     10  C   UNL     1      -1.003  -4.301  -3.317  0.00  0.00    +0.000 A 
ATOM     11  C   UNL     1      -0.655  -4.351  -4.714  0.00  0.00    +0.000 A 
ATOM     12  C   UNL     1       1.613  -0.083  -2.815  0.00  0.00    +0.000 A 
BRANCH   7  14
ATOM     13  C   UNL     1       0.915   0.001  -0.053  0.00  0.00    +0.000 C 
ATOM     14  O   UNL     1       0.442  -1.064  -0.865  0.00  0.00    +0.000 OA
ENDBRANCH   7  14
ENDBRANCH   3  10
ENDBRANCH   1   5
BRANCH   1  15
ATOM     15  N   UNL     1      -0.897  -3.185  -1.031  0.00  0.00    +0.000 N 
ATOM     16  H   UNL     1      -0.557  -2.420  -0.447  0.00  0.00    +0.000 HD
BRANCH  15  17
ATOM     17  N   UNL     1      -0.554  -3.233  -2.408  0.00  0.00    +0.000 N 
ATOM     18  C   UNL     1       0.291  -2.182  -2.993  0.00  0.00    +0.000 C 
ATOM     19  O   UNL     1       0.598  -2.226  -4.225  0.00  0.00    +0.000 OA
ATOM     20  H   UNL     1      -0.894  -3.998  -2.991  0.00  0.00    +0.000 HD
BRANCH  18  21
ATOM     21  C   UNL     1       0.798  -1.043  -2.123  0.00  0.00    +0.000 A 
ATOM     22  C   UNL     1       1.626  -0.013  -2.696  0.00  0.00    +0.000 A 
ATOM     23  C   UNL     1       1.974  -0.063  -4.093  0.00  0.00    +0.000 A 
ATOM     24  C   UNL     1       2.802   0.967  -4.666  0.00  0.00    +0.000 A 
ATOM     25  C   UNL     1       3.150   0.917  -6.062  0.00  0.00    +0.000 A 
ATOM     26  C   UNL     1       0.450  -0.994  -0.727  0.00  0.00    +0.000 A 
ATOM     27  C   UNL     1      -0.424  -2.080  -0.122  0.00  0.00    +0.000 C 
ENDBRANCH  18  21
ENDBRANCH  15  17
ENDBRANCH   1  15
TORSDOF 6
