REMARK  Name = 
REMARK  9 active torsions:
REMARK  status: ('A' for Active; 'I' for Inactive)
REMARK    1  A    between atoms: C_1  and  C_2
REMARK    2  A    between atoms: C_2  and  C_3
REMARK    3  A    between atoms: C_3  and  O_4
REMARK    4  A    between atoms: O_4  and  C_5
REMARK    5  A    between atoms: C_8  and  C_9
REMARK    6  A    between atoms: N_11  and  N_12
REMARK    7  A    between atoms: N_12  and  C_13
REMARK    8  A    between atoms: C_13  and  N_15
REMARK    9  A    between atoms: C_16  and  C_18
REMARK                            x       y       z     vdW  Elec       q    Type
REMARK                         _______ _______ _______ _____ _____    ______ ____
ROOT
ATOM      1  C   UNL     1      -1.720  -1.271   6.781  0.00  0.00    +0.000 C 
ATOM      2  O   UNL     1      -2.143  -0.830   7.896  0.00  0.00    +0.000 OA
ATOM      3  N   UNL     1      -2.075  -2.629   6.345  0.00  0.00    +0.000 N 
ATOM      4  H   UNL     1      -2.661  -3.217   6.936  0.00  0.00    +0.000 HD
ENDROOT
BRANCH   1   8
ATOM      5  C   UNL     1       0.942  -0.560   2.539  0.00  0.00    +0.000 A 
ATOM      6  C   UNL     1       0.462  -0.061   3.802  0.00  0.00    +0.000 A 
ATOM      7  C   UNL     1      -0.366  -0.892   4.637  0.00  0.00    +0.000 A 
ATOM      8  C   UNL     1      -0.846  -0.393   5.900  0.00  0.00    +0.000 A 
ATOM      9  C   UNL     1      -0.498   0.937   6.327  0.00  0.00    +0.000 A 
ATOM     10  C   UNL     1       1.770   0.271   1.704  0.00  0.00    +0.000 A 
BRANCH   5  11
ATOM     11  O   UNL     1       0.599  -1.872   2.118  0.00  0.00    +0.000 OA
BRANCH  11  12
ATOM     12  C   UNL     1       1.072  -2.364   0.873  0.00  0.00    +0.000 C 
BRANCH  12  14
ATOM     13  C   UNL     1       1.072  -0.056  -0.040  0.00  0.00    +0.000 C 
ATOM     14  C   UNL     1       0.566  -1.474  -0.250  0.00  0.00    +0.000 C 
ENDBRANCH  12  14
ENDBRANCH  11  12
ENDBRANCH   5  11
ENDBRANCH   1   8
BRANCH   3  15
ATOM     15  N   UNL     1      -1.602  -3.121   5.100  0.00  0.00    +0.000 N 
ATOM     16  H   UNL     1      -1.015  -2.532   4.508  0.00  0.00    +0.000 HD
BRANCH  15  17
ATOM     17  C   UNL     1      -1.957  -4.479   4.664  0.00  0.00    +0.000 C 
ATOM     18  S   UNL     1      -1.417  -5.040   3.243  0.00  0.00    +0.000 S 
BRANCH  17  19
ATOM     19  N   UNL     1      -2.802  -5.327   5.516  0.00  0.00    +0.000 N 
ATOM     20  C   UNL     1      -3.292  -4.818   6.805  0.00  0.00    +0.000 C 
ATOM     21  O   UNL     1      -4.023  -5.551   7.542  0.00  0.00    +0.000 OA
ATOM     22  H   UNL     1      -3.048  -6.270   5.213  0.00  0.00    +0.000 HD
BRANCH  20  23
ATOM     23  C   UNL     1      -2.925  -3.414   7.256  0.00  0.00    +0.000 A 
ATOM     24  C   UNL     1      -3.405  -2.914   8.519  0.00  0.00    +0.000 A 
ATOM     25  C   UNL     1      -4.233  -3.746   9.354  0.00  0.00    +0.000 A 
ATOM     26  C   UNL     1      -4.713  -3.246  10.617  0.00  0.00    +0.000 A 
ATOM     27  C   UNL     1      -5.541  -4.078  11.452  0.00  0.00    +0.000 A 
ATOM     28  C   UNL     1      -2.097  -2.582   6.421  0.00  0.00    +0.000 A 
ENDBRANCH  20  23
ENDBRANCH  17  19
ENDBRANCH  15  17
ENDBRANCH   3  15
TORSDOF 8
