REMARK  Name = 
REMARK  5 active torsions:
REMARK  status: ('A' for Active; 'I' for Inactive)
REMARK    1  A    between atoms: C_2  and  O_3
REMARK    2  A    between atoms: C_2  and  C_19
REMARK    3  A    between atoms: O_3  and  C_4
REMARK    4  A    between atoms: C_9  and  C_10
REMARK    5  A    between atoms: N_12  and  C_13
REMARK                            x       y       z     vdW  Elec       q    Type
REMARK                         _______ _______ _______ _____ _____    ______ ____
ROOT
ATOM      1  C   UNL     1       4.467   0.337   1.170  0.00  0.00    +0.000 A 
ATOM      2  C   UNL     1       5.187   0.609   2.387  0.00  0.00    +0.000 A 
ATOM      3  C   UNL     1       4.467   0.882   3.604  0.00  0.00    +0.000 A 
ATOM      4  C   UNL     1       5.187   1.154   4.821  0.00  0.00    +0.000 A 
ATOM      5  C   UNL     1       4.467   1.426   6.038  0.00  0.00    +0.000 A 
ATOM      6  C   UNL     1       5.187   0.064  -0.048  0.00  0.00    +0.000 A 
ENDROOT
BRANCH   6   7
ATOM      7  C   UNL     1       4.427  -0.223  -1.332  0.00  0.00    +0.000 C 
ATOM      8  O   UNL     1       3.156  -0.223  -1.332  0.00  0.00    +0.000 OA
ATOM      9  N   UNL     1       5.162  -0.501  -2.575  0.00  0.00    +0.000 N 
ATOM     10  H   UNL     1       4.652  -0.694  -3.437  0.00  0.00    +0.000 HD
BRANCH   9  11
ATOM     11  C   UNL     1       6.632  -0.501  -2.575  0.00  0.00    +0.000 A 
ATOM     12  C   UNL     1       7.352  -0.229  -1.357  0.00  0.00    +0.000 A 
ATOM     13  C   UNL     1       6.632   0.044  -0.140  0.00  0.00    +0.000 A 
ATOM     14  C   UNL     1       7.352   0.316   1.077  0.00  0.00    +0.000 A 
ATOM     15  C   UNL     1       6.632   0.589   2.294  0.00  0.00    +0.000 A 
ATOM     16  C   UNL     1       7.352  -0.773  -3.792  0.00  0.00    +0.000 A 
ENDBRANCH   9  11
ENDBRANCH   6   7
BRANCH   1  17
ATOM     17  O   UNL     1       3.047   0.337   1.170  0.00  0.00    +0.000 OA
BRANCH  17  19
ATOM     18  O   UNL     1       1.066   0.068  -0.031  0.00  0.00    +0.000 OA
ATOM     19  C   UNL     1       2.337   0.068  -0.031  0.00  0.00    +0.000 C 
BRANCH  19  20
ATOM     20  C   UNL     1       3.097  -0.219  -1.315  0.00  0.00    +0.000 A 
ATOM     21  C   UNL     1       4.537  -0.219  -1.315  0.00  0.00    +0.000 A 
ATOM     22  C   UNL     1       5.258   0.053  -0.098  0.00  0.00    +0.000 A 
ATOM     23  C   UNL     1       6.698   0.053  -0.098  0.00  0.00    +0.000 A 
ATOM     24  C   UNL     1       7.418   0.326   1.119  0.00  0.00    +0.000 A 
ATOM     25  C   UNL     1       2.377  -0.492  -2.532  0.00  0.00    +0.000 A 
ATOM     26 BR   UNL     1       0.417  -0.492  -2.532  0.00  0.00    +0.000 Br
ENDBRANCH  19  20
ENDBRANCH  17  19
ENDBRANCH   1  17
TORSDOF 5
