REMARK  Name = 
REMARK  7 active torsions:
REMARK  status: ('A' for Active; 'I' for Inactive)
REMARK    1  A    between atoms: C_1  and  O_2
REMARK    2  A    between atoms: O_2  and  C_3
REMARK    3  A    between atoms: C_6  and  C_7
REMARK    4  A    between atoms: N_9  and  N_10
REMARK    5  A    between atoms: N_10  and  C_11
REMARK    6  A    between atoms: C_11  and  N_13
REMARK    7  A    between atoms: C_14  and  C_16
REMARK                            x       y       z     vdW  Elec       q    Type
REMARK                         _______ _______ _______ _____ _____    ______ ____
ROOT
ATOM      1  N   UNL     1      -1.703   4.130  -1.344  0.00  0.00    +0.000 N 
ATOM      2  H   UNL     1      -1.117   3.638  -0.670  0.00  0.00    +0.000 HD
ENDROOT
BRANCH   1   5
ATOM      3  C   UNL     1      -1.821   6.079   0.221  0.00  0.00    +0.000 C 
ATOM      4  O   UNL     1      -2.245   7.249   0.483  0.00  0.00    +0.000 OA
ATOM      5  N   UNL     1      -2.176   5.437  -1.052  0.00  0.00    +0.000 N 
ATOM      6  H   UNL     1      -2.763   5.929  -1.726  0.00  0.00    +0.000 HD
BRANCH   3  10
ATOM      7  C   UNL     1       0.841   2.000   1.585  0.00  0.00    +0.000 A 
ATOM      8  C   UNL     1       0.361   3.325   1.881  0.00  0.00    +0.000 A 
ATOM      9  C   UNL     1      -0.467   4.020   0.929  0.00  0.00    +0.000 A 
ATOM     10  C   UNL     1      -0.947   5.346   1.226  0.00  0.00    +0.000 A 
ATOM     11  C   UNL     1      -0.599   5.975   2.473  0.00  0.00    +0.000 A 
ATOM     12  C   UNL     1       1.669   1.305   2.536  0.00  0.00    +0.000 A 
BRANCH   7  14
ATOM     13  C   UNL     1       0.971   0.072   0.063  0.00  0.00    +0.000 C 
ATOM     14  O   UNL     1       0.498   1.379   0.355  0.00  0.00    +0.000 OA
ENDBRANCH   7  14
ENDBRANCH   3  10
ENDBRANCH   1   5
BRANCH   1  15
ATOM     15  C   UNL     1      -2.058   3.487  -2.617  0.00  0.00    +0.000 C 
ATOM     16  S   UNL     1      -1.518   1.997  -2.950  0.00  0.00    +0.000 S 
BRANCH  15  17
ATOM     17  N   UNL     1      -2.903   4.197  -3.588  0.00  0.00    +0.000 N 
ATOM     18  C   UNL     1      -3.393   5.549  -3.286  0.00  0.00    +0.000 C 
ATOM     19  O   UNL     1      -4.124   6.163  -4.126  0.00  0.00    +0.000 OA
ATOM     20  H   UNL     1      -3.150   3.751  -4.472  0.00  0.00    +0.000 HD
BRANCH  18  21
ATOM     21  C   UNL     1      -3.026   6.214  -1.969  0.00  0.00    +0.000 A 
ATOM     22  C   UNL     1      -3.506   7.539  -1.673  0.00  0.00    +0.000 A 
ATOM     23  C   UNL     1      -4.334   8.234  -2.625  0.00  0.00    +0.000 A 
ATOM     24  C   UNL     1      -4.814   9.560  -2.329  0.00  0.00    +0.000 A 
ATOM     25  O   UNL     1      -2.253   5.565  -1.081  0.00  0.00    +0.000 OA
ENDBRANCH  18  21
ENDBRANCH  15  17
ENDBRANCH   1  15
TORSDOF 6
