REMARK  Name = 
REMARK  9 active torsions:
REMARK  status: ('A' for Active; 'I' for Inactive)
REMARK    1  A    between atoms: C_1  and  C_2
REMARK    2  A    between atoms: C_2  and  O_3
REMARK    3  A    between atoms: O_3  and  C_4
REMARK    4  A    between atoms: C_7  and  N_8
REMARK    5  A    between atoms: C_9  and  C_11
REMARK    6  A    between atoms: C_12  and  C_13
REMARK    7  A    between atoms: C_16  and  O_17
REMARK    8  A    between atoms: O_17  and  C_18
REMARK    9  A    between atoms: C_21  and  N_22
REMARK                            x       y       z     vdW  Elec       q    Type
REMARK                         _______ _______ _______ _____ _____    ______ ____
ROOT
ATOM      1  N   UNL     1       1.475   5.278   5.238  0.00  0.00    +0.000 N 
ATOM      2  C   UNL     1       1.965   6.415   6.031  0.00  0.00    +0.000 C 
ATOM      3  O   UNL     1       1.139   7.207   6.583  0.00  0.00    +0.000 OA
ATOM      4  H   UNL     1       0.472   5.125   5.131  0.00  0.00    +0.000 HD
ENDROOT
BRANCH   1   8
ATOM      5  C   UNL     1       2.406   1.236   2.419  0.00  0.00    +0.000 A 
ATOM      6  C   UNL     1       2.886   2.350   3.196  0.00  0.00    +0.000 A 
ATOM      7  C   UNL     1       1.950   3.248   3.822  0.00  0.00    +0.000 A 
ATOM      8  C   UNL     1       2.430   4.362   4.599  0.00  0.00    +0.000 A 
ATOM      9  C   UNL     1       3.846   4.577   4.749  0.00  0.00    +0.000 A 
ATOM     10  C   UNL     1       3.342   0.338   1.793  0.00  0.00    +0.000 A 
BRANCH   9  11
ATOM     11  N   UNL     1       4.336   5.714   5.542  0.00  0.00    +0.000 N 
ATOM     12  O   UNL     1       3.539   6.479   6.075  0.00  0.00    +0.000 OA
ATOM     13  O   UNL     1       5.683   5.919   5.685  0.00  0.00    +0.000 OA
ENDBRANCH   9  11
BRANCH   5  14
ATOM     14  O   UNL     1       1.010   1.023   2.270  0.00  0.00    +0.000 OA
BRANCH  14  16
ATOM     15  C   UNL     1       1.043   0.048   0.077  0.00  0.00    +0.000 C 
ATOM     16  C   UNL     1       0.536  -0.075   1.504  0.00  0.00    +0.000 C 
ENDBRANCH  14  16
ENDBRANCH   5  14
ENDBRANCH   1   8
BRANCH   2  17
ATOM     17  C   UNL     1       3.459   6.643   6.189  0.00  0.00    +0.000 C 
ATOM     18  C   UNL     1       4.343   5.794   5.598  0.00  0.00    +0.000 C 
BRANCH  18  19
ATOM     19  C   UNL     1       5.838   6.022   5.757  0.00  0.00    +0.000 A 
ATOM     20  C   UNL     1       6.318   7.136   6.534  0.00  0.00    +0.000 A 
ATOM     21  C   UNL     1       5.382   8.034   7.160  0.00  0.00    +0.000 A 
ATOM     22  C   UNL     1       5.862   9.148   7.937  0.00  0.00    +0.000 A 
ATOM     23  C   UNL     1       7.278   9.363   8.087  0.00  0.00    +0.000 A 
ATOM     24  C   UNL     1       6.774   5.124   5.131  0.00  0.00    +0.000 A 
BRANCH  22  25
ATOM     25  O   UNL     1       4.939  10.033   8.554  0.00  0.00    +0.000 OA
ATOM     26  C   UNL     1       3.543   9.820   8.406  0.00  0.00    +0.000 C 
ENDBRANCH  22  25
ENDBRANCH  18  19
ENDBRANCH   2  17
TORSDOF 7
