REMARK  Name = 
REMARK  6 active torsions:
REMARK  status: ('A' for Active; 'I' for Inactive)
REMARK    1  A    between atoms: C_1  and  C_2
REMARK    2  A    between atoms: C_7  and  C_8
REMARK    3  A    between atoms: N_10  and  N_11
REMARK    4  A    between atoms: N_11  and  C_12
REMARK    5  A    between atoms: C_12  and  N_14
REMARK    6  A    between atoms: C_15  and  C_17
REMARK                            x       y       z     vdW  Elec       q    Type
REMARK                         _______ _______ _______ _____ _____    ______ ____
ROOT
ATOM      1  N   UNL     1      -2.074   2.875   3.135  0.00  0.00    +0.000 N 
ATOM      2  H   UNL     1      -1.828   2.033   3.656  0.00  0.00    +0.000 HD
ENDROOT
BRANCH   1   5
ATOM      3  C   UNL     1      -0.756   2.024   1.185  0.00  0.00    +0.000 C 
ATOM      4  O   UNL     1      -0.332   2.183  -0.002  0.00  0.00    +0.000 OA
ATOM      5  N   UNL     1      -1.601   3.053   1.809  0.00  0.00    +0.000 N 
ATOM      6  H   UNL     1      -1.847   3.894   1.288  0.00  0.00    +0.000 HD
BRANCH   3  13
ATOM      7  C   UNL     1       0.946  -0.048  -0.069  0.00  0.00    +0.000 C 
ATOM      8  C   UNL     1       0.439  -0.238   1.351  0.00  0.00    +0.000 A 
ATOM      9  C   UNL     1       0.787  -1.427   2.086  0.00  0.00    +0.000 A 
ATOM     10  C   UNL     1       1.615  -2.435   1.476  0.00  0.00    +0.000 A 
ATOM     11  C   UNL     1       1.963  -3.623   2.211  0.00  0.00    +0.000 A 
ATOM     12  C   UNL     1       2.791  -4.631   1.600  0.00  0.00    +0.000 A 
ATOM     13  C   UNL     1      -0.389   0.770   1.961  0.00  0.00    +0.000 A 
ENDBRANCH   3  13
ENDBRANCH   1   5
BRANCH   1  14
ATOM     14  C   UNL     1      -2.919   3.903   3.759  0.00  0.00    +0.000 C 
ATOM     15  S   UNL     1      -3.459   3.700   5.272  0.00  0.00    +0.000 S 
BRANCH  14  16
ATOM     16  N   UNL     1      -3.275   5.117   3.008  0.00  0.00    +0.000 N 
ATOM     17  C   UNL     1      -2.785   5.301   1.635  0.00  0.00    +0.000 C 
ATOM     18  O   UNL     1      -3.092   6.350   0.986  0.00  0.00    +0.000 OA
ATOM     19  H   UNL     1      -3.861   5.830   3.441  0.00  0.00    +0.000 HD
BRANCH  17  20
ATOM     20  C   UNL     1      -1.911   4.237   0.990  0.00  0.00    +0.000 A 
ATOM     21  C   UNL     1      -1.431   4.418  -0.356  0.00  0.00    +0.000 A 
ATOM     22  C   UNL     1      -1.779   5.606  -1.091  0.00  0.00    +0.000 A 
ATOM     23  C   UNL     1      -1.298   5.787  -2.437  0.00  0.00    +0.000 A 
ATOM     24  C   UNL     1      -1.646   6.975  -3.172  0.00  0.00    +0.000 A 
ATOM     25  C   UNL     1      -1.563   3.049   1.725  0.00  0.00    +0.000 A 
ENDBRANCH  17  20
ENDBRANCH  14  16
ENDBRANCH   1  14
TORSDOF 5
