REMARK  Name = 
REMARK  8 active torsions:
REMARK  status: ('A' for Active; 'I' for Inactive)
REMARK    1  A    between atoms: C_1  and  O_2
REMARK    2  A    between atoms: O_2  and  C_3
REMARK    3  A    between atoms: C_6  and  C_7
REMARK    4  A    between atoms: N_9  and  C_10
REMARK    5  A    between atoms: C_10  and  N_12
REMARK    6  A    between atoms: N_12  and  N_13
REMARK    7  A    between atoms: C_14  and  C_16
REMARK    8  A    between atoms: C_19  and  C_20
REMARK                            x       y       z     vdW  Elec       q    Type
REMARK                         _______ _______ _______ _____ _____    ______ ____
ROOT
ATOM      1  C   UNL     1      -1.743  -1.220   4.128  0.00  0.00    +0.000 C 
ATOM      2  S   UNL     1      -2.134   0.333   4.372  0.00  0.00    +0.000 S 
ENDROOT
BRANCH   1   5
ATOM      3  C   UNL     1      -1.878  -3.664   4.827  0.00  0.00    +0.000 C 
ATOM      4  O   UNL     1      -2.302  -4.560   5.624  0.00  0.00    +0.000 OA
ATOM      5  N   UNL     1      -2.233  -2.255   5.049  0.00  0.00    +0.000 N 
ATOM      6  H   UNL     1      -2.819  -1.996   5.842  0.00  0.00    +0.000 HD
BRANCH   3  10
ATOM      7  C   UNL     1       0.784  -2.388   0.720  0.00  0.00    +0.000 A 
ATOM      8  C   UNL     1       0.304  -3.403   1.622  0.00  0.00    +0.000 A 
ATOM      9  C   UNL     1      -0.524  -3.037   2.742  0.00  0.00    +0.000 A 
ATOM     10  C   UNL     1      -1.004  -4.051   3.645  0.00  0.00    +0.000 A 
ATOM     11  C   UNL     1      -0.656  -5.431   3.428  0.00  0.00    +0.000 A 
ATOM     12  C   UNL     1       1.612  -2.755  -0.400  0.00  0.00    +0.000 A 
BRANCH   7  14
ATOM     13  C   UNL     1       0.914  -0.027   0.044  0.00  0.00    +0.000 C 
ATOM     14  O   UNL     1       0.441  -1.027   0.934  0.00  0.00    +0.000 OA
ENDBRANCH   7  14
ENDBRANCH   3  10
ENDBRANCH   1   5
BRANCH   1  15
ATOM     15  N   UNL     1      -0.898  -1.594   2.984  0.00  0.00    +0.000 N 
ATOM     16  H   UNL     1      -0.558  -0.875   2.345  0.00  0.00    +0.000 HD
BRANCH  15  17
ATOM     17  N   UNL     1      -0.555  -2.955   2.770  0.00  0.00    +0.000 N 
ATOM     18  C   UNL     1       0.290  -3.329   1.627  0.00  0.00    +0.000 C 
ATOM     19  O   UNL     1       0.597  -4.547   1.435  0.00  0.00    +0.000 OA
ATOM     20  H   UNL     1      -0.895  -3.673   3.409  0.00  0.00    +0.000 HD
BRANCH  18  21
ATOM     21  C   UNL     1       0.797  -2.258   0.674  0.00  0.00    +0.000 A 
ATOM     22  C   UNL     1       1.625  -2.624  -0.446  0.00  0.00    +0.000 A 
ATOM     23  C   UNL     1       1.973  -4.005  -0.663  0.00  0.00    +0.000 A 
ATOM     24  C   UNL     1       2.801  -4.371  -1.783  0.00  0.00    +0.000 A 
ATOM     25  C   UNL     1       3.168  -5.828  -2.013  0.00  0.00    +0.000 C 
ATOM     26  C   UNL     1       3.281  -3.357  -2.686  0.00  0.00    +0.000 A 
ATOM     27  C   UNL     1       0.449  -0.878   0.892  0.00  0.00    +0.000 A 
ENDBRANCH  18  21
ENDBRANCH  15  17
ENDBRANCH   1  15
TORSDOF 6
