REMARK  Name = 
REMARK  6 active torsions:
REMARK  status: ('A' for Active; 'I' for Inactive)
REMARK    1  A    between atoms: C_1  and  C_2
REMARK    2  A    between atoms: C_5  and  C_6
REMARK    3  A    between atoms: N_8  and  N_9
REMARK    4  A    between atoms: N_9  and  C_10
REMARK    5  A    between atoms: C_10  and  N_12
REMARK    6  A    between atoms: C_13  and  C_15
REMARK                            x       y       z     vdW  Elec       q    Type
REMARK                         _______ _______ _______ _____ _____    ______ ____
ROOT
ATOM      1  N   UNL     1       2.977   1.087  -3.216  0.00  0.00    +0.000 N 
ATOM      2  H   UNL     1       2.390   0.530  -2.594  0.00  0.00    +0.000 HD
ENDROOT
BRANCH   1   5
ATOM      3  C   UNL     1       2.830  -0.724  -4.937  0.00  0.00    +0.000 C 
ATOM      4  O   UNL     1       3.137  -1.167  -6.087  0.00  0.00    +0.000 OA
ATOM      5  N   UNL     1       3.320   0.592  -4.501  0.00  0.00    +0.000 N 
ATOM      6  H   UNL     1       3.906   1.149  -5.123  0.00  0.00    +0.000 HD
BRANCH   3  11
ATOM      7  C   UNL     1       0.939   0.025  -0.075  0.00  0.00    +0.000 C 
ATOM      8  C   UNL     1       0.432  -1.335  -0.525  0.00  0.00    +0.000 A 
ATOM      9  C   UNL     1       0.780  -1.838  -1.829  0.00  0.00    +0.000 A 
ATOM     10  C   UNL     1       1.608  -1.051  -2.706  0.00  0.00    +0.000 A 
ATOM     11  C   UNL     1       1.956  -1.554  -4.010  0.00  0.00    +0.000 A 
ATOM     12  C   UNL     1       1.476  -2.843  -4.437  0.00  0.00    +0.000 A 
ATOM     13  C   UNL     1      -0.396  -2.122   0.353  0.00  0.00    +0.000 A 
ENDBRANCH   3  11
ENDBRANCH   1   5
BRANCH   1  14
ATOM     14  C   UNL     1       3.467   2.403  -2.780  0.00  0.00    +0.000 C 
ATOM     15  S   UNL     1       3.075   2.969  -1.313  0.00  0.00    +0.000 S 
BRANCH  14  16
ATOM     16  N   UNL     1       4.312   3.206  -3.676  0.00  0.00    +0.000 N 
ATOM     17  C   UNL     1       4.667   2.693  -5.007  0.00  0.00    +0.000 C 
ATOM     18  O   UNL     1       5.398   3.387  -5.781  0.00  0.00    +0.000 OA
ATOM     19  H   UNL     1       4.652   4.119  -3.374  0.00  0.00    +0.000 HD
BRANCH  17  20
ATOM     20  C   UNL     1       4.160   1.332  -5.457  0.00  0.00    +0.000 A 
ATOM     21  C   UNL     1       4.508   0.830  -6.761  0.00  0.00    +0.000 A 
ATOM     22  C   UNL     1       5.336   1.616  -7.639  0.00  0.00    +0.000 A 
ATOM     23  C   UNL     1       5.684   1.114  -8.943  0.00  0.00    +0.000 A 
ATOM     24 CL   UNL     1       6.707   2.086 -10.027  0.00  0.00    +0.000 Cl
ATOM     25  C   UNL     1       5.204  -0.175  -9.369  0.00  0.00    +0.000 A 
ATOM     26  C   UNL     1       3.332   0.546  -4.580  0.00  0.00    +0.000 A 
ENDBRANCH  17  20
ENDBRANCH  14  16
ENDBRANCH   1  14
TORSDOF 5
