REMARK  Name = 
REMARK  6 active torsions:
REMARK  status: ('A' for Active; 'I' for Inactive)
REMARK    1  A    between atoms: C_1  and  C_2
REMARK    2  A    between atoms: C_6  and  C_7
REMARK    3  A    between atoms: N_9  and  C_10
REMARK    4  A    between atoms: C_10  and  N_12
REMARK    5  A    between atoms: N_12  and  N_13
REMARK    6  A    between atoms: C_14  and  C_16
REMARK                            x       y       z     vdW  Elec       q    Type
REMARK                         _______ _______ _______ _____ _____    ______ ____
ROOT
ATOM      1  C   UNL     1       4.486  -3.032   5.989  0.00  0.00    +0.000 C 
ATOM      2  S   UNL     1       5.418  -4.191   6.631  0.00  0.00    +0.000 S 
ENDROOT
BRANCH   1   5
ATOM      3  C   UNL     1       3.286  -2.028   3.981  0.00  0.00    +0.000 C 
ATOM      4  O   UNL     1       2.979  -2.069   2.748  0.00  0.00    +0.000 OA
ATOM      5  N   UNL     1       4.131  -3.080   4.563  0.00  0.00    +0.000 N 
ATOM      6  H   UNL     1       4.471  -3.843   3.979  0.00  0.00    +0.000 HD
BRANCH   3  12
ATOM      7  C   UNL     1       0.934  -0.061   0.045  0.00  0.00    +0.000 C 
ATOM      8  C   UNL     1       0.428   1.077   0.916  0.00  0.00    +0.000 A 
ATOM      9  C   UNL     1       0.776   1.124   2.313  0.00  0.00    +0.000 A 
ATOM     10  C   UNL     1       1.604   0.094   2.884  0.00  0.00    +0.000 A 
ATOM     11  C   UNL     1       1.952   0.141   4.281  0.00  0.00    +0.000 A 
ATOM     12  C   UNL     1       2.780  -0.890   4.852  0.00  0.00    +0.000 A 
ATOM     13  C   UNL     1      -0.400   2.108   0.345  0.00  0.00    +0.000 A 
ENDBRANCH   3  12
ENDBRANCH   1   5
BRANCH   1  14
ATOM     14  N   UNL     1       3.996  -1.931   6.832  0.00  0.00    +0.000 N 
ATOM     15  H   UNL     1       4.243  -1.898   7.821  0.00  0.00    +0.000 HD
BRANCH  14  16
ATOM     16  N   UNL     1       3.180  -0.915   6.269  0.00  0.00    +0.000 N 
ATOM     17  C   UNL     1       2.690   0.185   7.112  0.00  0.00    +0.000 C 
ATOM     18  O   UNL     1       1.959   1.095   6.608  0.00  0.00    +0.000 OA
ATOM     19  H   UNL     1       2.934  -0.949   5.280  0.00  0.00    +0.000 HD
BRANCH  17  20
ATOM     20  C   UNL     1       3.057   0.235   8.586  0.00  0.00    +0.000 A 
ATOM     21  C   UNL     1       2.577   1.313   9.411  0.00  0.00    +0.000 A 
ATOM     22  C   UNL     1       1.749   2.344   8.840  0.00  0.00    +0.000 A 
ATOM     23  C   UNL     1       1.269   3.422   9.666  0.00  0.00    +0.000 A 
ATOM     24  C   UNL     1       0.441   4.452   9.095  0.00  0.00    +0.000 A 
ATOM     25  C   UNL     1       3.885  -0.796   9.157  0.00  0.00    +0.000 A 
ATOM     26 CL   UNL     1       4.479  -2.128   8.136  0.00  0.00    +0.000 Cl
ENDBRANCH  17  20
ENDBRANCH  14  16
ENDBRANCH   1  14
TORSDOF 5
