REMARK  Name = 
REMARK  9 active torsions:
REMARK  status: ('A' for Active; 'I' for Inactive)
REMARK    1  A    between atoms: C_1  and  O_2
REMARK    2  A    between atoms: O_2  and  C_3
REMARK    3  A    between atoms: C_6  and  C_7
REMARK    4  A    between atoms: N_9  and  N_10
REMARK    5  A    between atoms: N_10  and  C_11
REMARK    6  A    between atoms: C_11  and  N_13
REMARK    7  A    between atoms: C_14  and  C_16
REMARK    8  A    between atoms: C_19  and  O_20
REMARK    9  A    between atoms: O_20  and  C_21
REMARK                            x       y       z     vdW  Elec       q    Type
REMARK                         _______ _______ _______ _____ _____    ______ ____
ROOT
ATOM      1  N   UNL     1      -1.696  -3.329   2.731  0.00  0.00    +0.000 N 
ATOM      2  H   UNL     1      -1.110  -3.083   1.934  0.00  0.00    +0.000 HD
ENDROOT
BRANCH   1   5
ATOM      3  C   UNL     1      -1.815  -5.682   1.884  0.00  0.00    +0.000 C 
ATOM      4  O   UNL     1      -2.238  -6.873   2.016  0.00  0.00    +0.000 OA
ATOM      5  N   UNL     1      -2.170  -4.660   2.879  0.00  0.00    +0.000 N 
ATOM      6  H   UNL     1      -2.756  -4.907   3.676  0.00  0.00    +0.000 HD
BRANCH   3  10
ATOM      7  C   UNL     1       0.848  -2.266  -0.731  0.00  0.00    +0.000 A 
ATOM      8  C   UNL     1       0.367  -3.616  -0.580  0.00  0.00    +0.000 A 
ATOM      9  C   UNL     1      -0.461  -3.964   0.545  0.00  0.00    +0.000 A 
ATOM     10  C   UNL     1      -0.941  -5.314   0.696  0.00  0.00    +0.000 A 
ATOM     11  C   UNL     1      -0.593  -6.315  -0.280  0.00  0.00    +0.000 A 
ATOM     12  C   UNL     1       1.675  -1.918  -1.856  0.00  0.00    +0.000 A 
BRANCH   7  14
ATOM     13  C   UNL     1       0.978   0.051   0.083  0.00  0.00    +0.000 C 
ATOM     14  O   UNL     1       0.504  -1.279   0.231  0.00  0.00    +0.000 OA
ENDBRANCH   7  14
ENDBRANCH   3  10
ENDBRANCH   1   5
BRANCH   1  15
ATOM     15  C   UNL     1      -2.051  -2.308   3.727  0.00  0.00    +0.000 C 
ATOM     16  S   UNL     1      -1.511  -0.790   3.558  0.00  0.00    +0.000 S 
BRANCH  15  17
ATOM     17  N   UNL     1      -2.897  -2.664   4.876  0.00  0.00    +0.000 N 
ATOM     18  C   UNL     1      -3.387  -4.041   5.029  0.00  0.00    +0.000 C 
ATOM     19  O   UNL     1      -4.117  -4.349   6.022  0.00  0.00    +0.000 OA
ATOM     20  H   UNL     1      -3.143  -1.955   5.566  0.00  0.00    +0.000 HD
BRANCH  18  21
ATOM     21  C   UNL     1      -3.019  -5.097   3.999  0.00  0.00    +0.000 A 
ATOM     22  C   UNL     1      -3.499  -6.447   4.150  0.00  0.00    +0.000 A 
ATOM     23  C   UNL     1      -4.327  -6.796   5.275  0.00  0.00    +0.000 A 
ATOM     24  C   UNL     1      -4.807  -8.145   5.426  0.00  0.00    +0.000 A 
ATOM     25  C   UNL     1      -4.460  -9.146   4.450  0.00  0.00    +0.000 A 
ATOM     26  C   UNL     1      -2.191  -4.749   2.874  0.00  0.00    +0.000 A 
BRANCH  24  27
ATOM     27  O   UNL     1      -5.624  -8.489   6.536  0.00  0.00    +0.000 OA
ATOM     28  C   UNL     1      -5.967  -7.502   7.497  0.00  0.00    +0.000 C 
ENDBRANCH  24  27
ENDBRANCH  18  21
ENDBRANCH  15  17
ENDBRANCH   1  15
TORSDOF 7
