REMARK  Name = 
REMARK  6 active torsions:
REMARK  status: ('A' for Active; 'I' for Inactive)
REMARK    1  A    between atoms: C_1  and  C_2
REMARK    2  A    between atoms: C_5  and  C_6
REMARK    3  A    between atoms: N_8  and  N_9
REMARK    4  A    between atoms: N_9  and  C_10
REMARK    5  A    between atoms: C_10  and  N_12
REMARK    6  A    between atoms: C_13  and  C_15
REMARK                            x       y       z     vdW  Elec       q    Type
REMARK                         _______ _______ _______ _____ _____    ______ ____
ROOT
ATOM      1  N   UNL     1       2.977   2.469  -2.140  0.00  0.00    +0.000 N 
ATOM      2  H   UNL     1       2.391   1.669  -1.901  0.00  0.00    +0.000 HD
ENDROOT
BRANCH   1   5
ATOM      3  C   UNL     1       2.830   1.824  -4.554  0.00  0.00    +0.000 C 
ATOM      4  O   UNL     1       3.137   2.047  -5.767  0.00  0.00    +0.000 OA
ATOM      5  N   UNL     1       3.320   2.718  -3.495  0.00  0.00    +0.000 N 
ATOM      6  H   UNL     1       3.907   3.518  -3.734  0.00  0.00    +0.000 HD
BRANCH   3  11
ATOM      7  C   UNL     1       0.939  -0.078  -0.017  0.00  0.00    +0.000 C 
ATOM      8  C   UNL     1       0.433  -1.002  -1.112  0.00  0.00    +0.000 A 
ATOM      9  C   UNL     1       0.781  -0.750  -2.486  0.00  0.00    +0.000 A 
ATOM     10  C   UNL     1       1.609   0.380  -2.824  0.00  0.00    +0.000 A 
ATOM     11  C   UNL     1       1.956   0.632  -4.198  0.00  0.00    +0.000 A 
ATOM     12  C   UNL     1       1.476  -0.244  -5.235  0.00  0.00    +0.000 A 
ATOM     13  C   UNL     1      -0.395  -2.131  -0.775  0.00  0.00    +0.000 A 
ENDBRANCH   3  11
ENDBRANCH   1   5
BRANCH   1  14
ATOM     14  C   UNL     1       3.467   3.364  -1.081  0.00  0.00    +0.000 C 
ATOM     15  S   UNL     1       3.076   3.079   0.465  0.00  0.00    +0.000 S 
BRANCH  14  16
ATOM     16  N   UNL     1       4.312   4.516  -1.426  0.00  0.00    +0.000 N 
ATOM     17  C   UNL     1       4.668   4.774  -2.829  0.00  0.00    +0.000 C 
ATOM     18  O   UNL     1       5.398   5.770  -3.126  0.00  0.00    +0.000 OA
ATOM     19  H   UNL     1       4.652   5.137  -0.691  0.00  0.00    +0.000 HD
BRANCH  17  20
ATOM     20  C   UNL     1       4.161   3.849  -3.923  0.00  0.00    +0.000 A 
ATOM     21  C   UNL     1       4.509   4.102  -5.298  0.00  0.00    +0.000 A 
ATOM     22  C   UNL     1       5.337   5.231  -5.635  0.00  0.00    +0.000 A 
ATOM     23  C   UNL     1       5.685   5.484  -7.010  0.00  0.00    +0.000 A 
ATOM     24  O   UNL     1       3.387   2.794  -3.608  0.00  0.00    +0.000 OA
ENDBRANCH  17  20
ENDBRANCH  14  16
ENDBRANCH   1  14
TORSDOF 5
