REMARK  Name = 
REMARK  2 active torsions:
REMARK  status: ('A' for Active; 'I' for Inactive)
REMARK    1  A    between atoms: N_3  and  C_4
REMARK    2  A    between atoms: C_4  and  C_5
REMARK                            x       y       z     vdW  Elec       q    Type
REMARK                         _______ _______ _______ _____ _____    ______ ____
ROOT
ATOM      1  O   UNL     1       1.050   0.077  -0.039  0.00  0.00    +0.000 OA
ATOM      2  C   UNL     1       2.321   0.077  -0.039  0.00  0.00    +0.000 C 
ATOM      3  N   UNL     1       3.056  -0.292   1.179  0.00  0.00    +0.000 N 
ATOM      4  N   UNL     1       3.056   0.447  -1.257  0.00  0.00    +0.000 N 
ATOM      5  C   UNL     1       4.526   0.447  -1.257  0.00  0.00    +0.000 C 
ATOM      6  C   UNL     1       5.033   1.426  -0.211  0.00  0.00    +0.000 C 
ATOM      7  N   UNL     1       4.543   1.024   1.115  0.00  0.00    +0.000 N 
ATOM      8  C   UNL     1       5.498   0.700   2.184  0.00  0.00    +0.000 A 
ATOM      9  C   UNL     1       6.914   0.777   1.932  0.00  0.00    +0.000 A 
ATOM     10  C   UNL     1       7.394   1.170   0.633  0.00  0.00    +0.000 A 
ATOM     11  C   UNL     1       8.810   1.247   0.381  0.00  0.00    +0.000 A 
ATOM     12  C   UNL     1       9.290   1.641  -0.918  0.00  0.00    +0.000 A 
ATOM     13  N   UNL     1       5.034   0.319   3.441  0.00  0.00    +0.000 NA
ATOM     14  C   UNL     1       3.097   0.946   1.372  0.00  0.00    +0.000 C 
ATOM     15  C   UNL     1       2.321   0.816  -2.476  0.00  0.00    +0.000 C 
ATOM     16  H   UNL     1       2.546  -0.548   2.025  0.00  0.00    +0.000 HD
ENDROOT
BRANCH   3  17
ATOM     17  C   UNL     1       4.526  -0.292   1.179  0.00  0.00    +0.000 C 
BRANCH  17  18
ATOM     18  C   UNL     1       5.033   0.688   2.225  0.00  0.00    +0.000 A 
ATOM     19  C   UNL     1       4.685   2.082   2.134  0.00  0.00    +0.000 A 
ATOM     20  C   UNL     1       3.857   2.548   1.052  0.00  0.00    +0.000 A 
ATOM     21  C   UNL     1       3.509   3.943   0.960  0.00  0.00    +0.000 A 
ATOM     22 CL   UNL     1       2.485   4.519  -0.377  0.00  0.00    +0.000 Cl
ATOM     23  C   UNL     1       3.989   4.871   1.951  0.00  0.00    +0.000 A 
ATOM     24  C   UNL     1       5.861   0.222   3.307  0.00  0.00    +0.000 A 
ATOM     25 CL   UNL     1       6.291  -1.502   3.420  0.00  0.00    +0.000 Cl
ENDBRANCH  17  18
ENDBRANCH   3  17
TORSDOF 2
