REMARK  Name = 
REMARK  4 active torsions:
REMARK  status: ('A' for Active; 'I' for Inactive)
REMARK    1  A    between atoms: C_1  and  O_2
REMARK    2  A    between atoms: O_2  and  C_3
REMARK    3  A    between atoms: C_8  and  C_9
REMARK    4  A    between atoms: N_11  and  C_12
REMARK                            x       y       z     vdW  Elec       q    Type
REMARK                         _______ _______ _______ _____ _____    ______ ____
ROOT
ATOM      1  C   UNL     1       0.890   1.411  -2.069  0.00  0.00    +0.000 A 
ATOM      2  C   UNL     1       0.410   1.660  -3.404  0.00  0.00    +0.000 A 
ATOM      3  C   UNL     1      -0.418   0.684  -4.065  0.00  0.00    +0.000 A 
ATOM      4  C   UNL     1      -0.898   0.933  -5.400  0.00  0.00    +0.000 A 
ATOM      5  C   UNL     1      -0.550   2.158  -6.073  0.00  0.00    +0.000 A 
ATOM      6  C   UNL     1       0.278   3.133  -5.412  0.00  0.00    +0.000 A 
ATOM      7  C   UNL     1       0.758   2.884  -4.077  0.00  0.00    +0.000 A 
ATOM      8  N   UNL     1       0.422   1.700  -3.426  0.00  0.00    +0.000 NA
ATOM      9  C   UNL     1      -1.726  -0.042  -6.061  0.00  0.00    +0.000 A 
ATOM     10  C   UNL     1       1.718   2.386  -1.408  0.00  0.00    +0.000 A 
ENDROOT
BRANCH   6  11
ATOM     11  C   UNL     1       0.645   4.425  -6.123  0.00  0.00    +0.000 C 
ATOM     12  O   UNL     1       1.376   5.286  -5.540  0.00  0.00    +0.000 OA
ATOM     13  N   UNL     1       0.155   4.679  -7.486  0.00  0.00    +0.000 N 
ATOM     14  H   UNL     1       0.402   5.547  -7.963  0.00  0.00    +0.000 HD
BRANCH  13  15
ATOM     15  C   UNL     1      -0.690   3.684  -8.161  0.00  0.00    +0.000 C 
ATOM     16  C   UNL     1      -0.006   3.219  -9.436  0.00  0.00    +0.000 C 
ATOM     17  C   UNL     1       1.337   2.595  -9.092  0.00  0.00    +0.000 C 
ATOM     18  C   UNL     1       1.122   1.405  -8.171  0.00  0.00    +0.000 C 
ATOM     19  C   UNL     1      -2.032   4.308  -8.504  0.00  0.00    +0.000 C 
ENDBRANCH  13  15
ENDBRANCH   6  11
BRANCH   1  21
ATOM     20  C   UNL     1       1.021  -0.042  -0.088  0.00  0.00    +0.000 C 
ATOM     21  O   UNL     1       0.547   0.204  -1.405  0.00  0.00    +0.000 OA
ENDBRANCH   1  21
TORSDOF 3
