REMARK  Name = 
REMARK  7 active torsions:
REMARK  status: ('A' for Active; 'I' for Inactive)
REMARK    1  A    between atoms: C_1  and  O_2
REMARK    2  A    between atoms: O_2  and  C_3
REMARK    3  A    between atoms: C_6  and  C_7
REMARK    4  A    between atoms: N_9  and  N_10
REMARK    5  A    between atoms: N_10  and  C_11
REMARK    6  A    between atoms: C_11  and  N_13
REMARK    7  A    between atoms: C_14  and  C_16
REMARK                            x       y       z     vdW  Elec       q    Type
REMARK                         _______ _______ _______ _____ _____    ______ ____
ROOT
ATOM      1  N   UNL     1      -1.618  -2.343  -3.646  0.00  0.00    +0.000 N 
ATOM      2  H   UNL     1      -1.032  -1.567  -3.339  0.00  0.00    +0.000 HD
ENDROOT
BRANCH   1   5
ATOM      3  C   UNL     1      -1.737  -1.318  -5.926  0.00  0.00    +0.000 C 
ATOM      4  O   UNL     1      -2.160  -1.360  -7.124  0.00  0.00    +0.000 OA
ATOM      5  N   UNL     1      -2.092  -2.389  -4.984  0.00  0.00    +0.000 N 
ATOM      6  H   UNL     1      -2.678  -3.165  -5.291  0.00  0.00    +0.000 HD
BRANCH   3  10
ATOM      7  C   UNL     1       0.925   1.028  -2.321  0.00  0.00    +0.000 A 
ATOM      8  C   UNL     1       0.445   0.981  -3.679  0.00  0.00    +0.000 A 
ATOM      9  C   UNL     1      -0.383  -0.115  -4.112  0.00  0.00    +0.000 A 
ATOM     10  C   UNL     1      -0.863  -0.162  -5.469  0.00  0.00    +0.000 A 
ATOM     11  C   UNL     1      -0.515   0.887  -6.393  0.00  0.00    +0.000 A 
ATOM     12  C   UNL     1       1.753   2.124  -1.888  0.00  0.00    +0.000 A 
BRANCH   7  14
ATOM     13  C   UNL     1       1.056   0.040  -0.073  0.00  0.00    +0.000 C 
ATOM     14  O   UNL     1       0.582  -0.006  -1.411  0.00  0.00    +0.000 OA
ENDBRANCH   7  14
ENDBRANCH   3  10
ENDBRANCH   1   5
BRANCH   1  15
ATOM     15  C   UNL     1      -1.974  -3.413  -2.703  0.00  0.00    +0.000 C 
ATOM     16  S   UNL     1      -1.434  -3.360  -1.177  0.00  0.00    +0.000 S 
BRANCH  15  17
ATOM     17  N   UNL     1      -2.819  -4.532  -3.146  0.00  0.00    +0.000 N 
ATOM     18  C   UNL     1      -3.309  -4.579  -4.531  0.00  0.00    +0.000 C 
ATOM     19  O   UNL     1      -4.039  -5.546  -4.913  0.00  0.00    +0.000 OA
ATOM     20  H   UNL     1      -3.065  -5.274  -2.492  0.00  0.00    +0.000 HD
BRANCH  18  21
ATOM     21  C   UNL     1      -2.941  -3.472  -5.505  0.00  0.00    +0.000 A 
ATOM     22  C   UNL     1      -3.422  -3.519  -6.862  0.00  0.00    +0.000 A 
ATOM     23  C   UNL     1      -4.250  -4.615  -7.296  0.00  0.00    +0.000 A 
ATOM     24  C   UNL     1      -4.730  -4.662  -8.653  0.00  0.00    +0.000 A 
ATOM     25 CL   UNL     1      -5.753  -6.016  -9.189  0.00  0.00    +0.000 Cl
ATOM     26  C   UNL     1      -4.382  -3.613  -9.577  0.00  0.00    +0.000 A 
ATOM     27  C   UNL     1      -2.113  -2.377  -5.072  0.00  0.00    +0.000 A 
ENDBRANCH  18  21
ENDBRANCH  15  17
ENDBRANCH   1  15
TORSDOF 6
