REMARK  Name = 
REMARK  3 active torsions:
REMARK  status: ('A' for Active; 'I' for Inactive)
REMARK    1  A    between atoms: C_1  and  O_2
REMARK    2  A    between atoms: O_2  and  C_3
REMARK    3  A    between atoms: C_6  and  C_7
REMARK                            x       y       z     vdW  Elec       q    Type
REMARK                         _______ _______ _______ _____ _____    ______ ____
ROOT
ATOM      1  C   UNL     1      -1.740   4.748   3.711  0.00  0.00    +0.000 C 
ATOM      2  C   UNL     1      -2.194   5.601   4.668  0.00  0.00    +0.000 C 
ATOM      3  C   UNL     1      -1.827   5.373   6.126  0.00  0.00    +0.000 C 
ATOM      4  C   UNL     1      -2.342   4.014   6.571  0.00  0.00    +0.000 C 
ATOM      5  C   UNL     1      -1.713   2.927   5.713  0.00  0.00    +0.000 A 
ATOM      6  C   UNL     1      -1.917   2.927   4.288  0.00  0.00    +0.000 A 
ATOM      7  C   UNL     1      -2.717   3.955   3.674  0.00  0.00    +0.000 A 
ATOM      8  C   UNL     1      -2.921   3.955   2.249  0.00  0.00    +0.000 A 
ATOM      9  C   UNL     1      -3.721   4.983   1.635  0.00  0.00    +0.000 A 
ATOM     10  C   UNL     1      -0.913   1.899   6.327  0.00  0.00    +0.000 A 
ATOM     11  C   UNL     1      -3.068   6.783   4.281  0.00  0.00    +0.000 C 
ATOM     12  O   UNL     1      -3.375   6.974   3.063  0.00  0.00    +0.000 OA
ENDROOT
BRANCH   1  16
ATOM     13  C   UNL     1       0.922   0.639   2.437  0.00  0.00    +0.000 A 
ATOM     14  C   UNL     1       0.442   1.543   3.451  0.00  0.00    +0.000 A 
ATOM     15  C   UNL     1      -0.386   2.663   3.084  0.00  0.00    +0.000 A 
ATOM     16  C   UNL     1      -0.866   3.566   4.098  0.00  0.00    +0.000 A 
ATOM     17  C   UNL     1      -0.519   3.349   5.479  0.00  0.00    +0.000 A 
ATOM     18  C   UNL     1       1.750  -0.480   2.804  0.00  0.00    +0.000 A 
BRANCH  13  20
ATOM     19  C   UNL     1       1.052  -0.038   0.077  0.00  0.00    +0.000 C 
ATOM     20  O   UNL     1       0.579   0.853   1.076  0.00  0.00    +0.000 OA
ENDBRANCH  13  20
ENDBRANCH   1  16
TORSDOF 2
