REMARK  Name = 
REMARK  7 active torsions:
REMARK  status: ('A' for Active; 'I' for Inactive)
REMARK    1  A    between atoms: C_1  and  O_2
REMARK    2  A    between atoms: O_2  and  C_3
REMARK    3  A    between atoms: C_6  and  C_7
REMARK    4  A    between atoms: N_9  and  N_10
REMARK    5  A    between atoms: N_10  and  C_11
REMARK    6  A    between atoms: C_11  and  N_13
REMARK    7  A    between atoms: C_14  and  C_16
REMARK                            x       y       z     vdW  Elec       q    Type
REMARK                         _______ _______ _______ _____ _____    ______ ____
ROOT
ATOM      1  N   UNL     1      -1.690  -3.065   2.921  0.00  0.00    +0.000 N 
ATOM      2  H   UNL     1      -1.104  -2.912   2.101  0.00  0.00    +0.000 HD
ENDROOT
BRANCH   1   5
ATOM      3  C   UNL     1      -1.808  -5.499   2.350  0.00  0.00    +0.000 C 
ATOM      4  O   UNL     1      -2.232  -6.667   2.618  0.00  0.00    +0.000 OA
ATOM      5  N   UNL     1      -2.164  -4.370   3.221  0.00  0.00    +0.000 N 
ATOM      6  H   UNL     1      -2.750  -4.523   4.042  0.00  0.00    +0.000 HD
BRANCH   3  10
ATOM      7  C   UNL     1       0.854  -2.407  -0.640  0.00  0.00    +0.000 A 
ATOM      8  C   UNL     1       0.374  -3.730  -0.335  0.00  0.00    +0.000 A 
ATOM      9  C   UNL     1      -0.454  -3.947   0.823  0.00  0.00    +0.000 A 
ATOM     10  C   UNL     1      -0.935  -5.270   1.127  0.00  0.00    +0.000 A 
ATOM     11  C   UNL     1      -0.587  -6.377   0.273  0.00  0.00    +0.000 A 
ATOM     12  C   UNL     1       1.682  -2.190  -1.798  0.00  0.00    +0.000 A 
BRANCH   7  14
ATOM     13  C   UNL     1       0.984  -0.011  -0.098  0.00  0.00    +0.000 C 
ATOM     14  O   UNL     1       0.511  -1.316   0.202  0.00  0.00    +0.000 OA
ENDBRANCH   7  14
ENDBRANCH   3  10
ENDBRANCH   1   5
BRANCH   1  15
ATOM     15  C   UNL     1      -2.045  -1.936   3.793  0.00  0.00    +0.000 C 
ATOM     16  S   UNL     1      -1.505  -0.447   3.450  0.00  0.00    +0.000 S 
BRANCH  15  17
ATOM     17  N   UNL     1      -2.890  -2.157   4.975  0.00  0.00    +0.000 N 
ATOM     18  C   UNL     1      -3.380  -3.508   5.286  0.00  0.00    +0.000 C 
ATOM     19  O   UNL     1      -4.111  -3.699   6.308  0.00  0.00    +0.000 OA
ATOM     20  H   UNL     1      -3.137  -1.374   5.580  0.00  0.00    +0.000 HD
BRANCH  18  21
ATOM     21  C   UNL     1      -3.013  -4.676   4.384  0.00  0.00    +0.000 A 
ATOM     22  C   UNL     1      -3.493  -5.999   4.689  0.00  0.00    +0.000 A 
ATOM     23  C   UNL     1      -4.321  -6.216   5.847  0.00  0.00    +0.000 A 
ATOM     24  C   UNL     1      -4.801  -7.539   6.151  0.00  0.00    +0.000 A 
ATOM     25  C   UNL     1      -5.629  -7.756   7.310  0.00  0.00    +0.000 A 
ATOM     26  C   UNL     1      -2.185  -4.459   3.226  0.00  0.00    +0.000 A 
ENDBRANCH  18  21
ENDBRANCH  15  17
ENDBRANCH   1  15
TORSDOF 6
