REMARK  Name = 
REMARK  5 active torsions:
REMARK  status: ('A' for Active; 'I' for Inactive)
REMARK    1  A    between atoms: C_2  and  C_15
REMARK    2  A    between atoms: N_3  and  N_4
REMARK    3  A    between atoms: N_4  and  C_5
REMARK    4  A    between atoms: C_5  and  N_7
REMARK    5  A    between atoms: C_8  and  C_10
REMARK                            x       y       z     vdW  Elec       q    Type
REMARK                         _______ _______ _______ _____ _____    ______ ____
ROOT
ATOM      1  N   UNL     1       4.357  -1.096  -0.711  0.00  0.00    +0.000 N 
ATOM      2  H   UNL     1       4.867  -0.332  -0.268  0.00  0.00    +0.000 HD
ENDROOT
BRANCH   1   5
ATOM      3  O   UNL     1       0.931   0.005  -0.072  0.00  0.00    +0.000 OA
ATOM      4  C   UNL     1       2.202   0.005  -0.072  0.00  0.00    +0.000 C 
ATOM      5  N   UNL     1       2.937  -1.096  -0.711  0.00  0.00    +0.000 N 
ATOM      6  H   UNL     1       2.427  -1.860  -1.154  0.00  0.00    +0.000 HD
BRANCH   4   7
ATOM      7  C   UNL     1       2.962   1.144   0.588  0.00  0.00    +0.000 A 
ATOM      8  C   UNL     1       4.402   1.144   0.588  0.00  0.00    +0.000 A 
ATOM      9  C   UNL     1       5.122   0.065  -0.038  0.00  0.00    +0.000 A 
ATOM     10  C   UNL     1       6.562   0.065  -0.038  0.00  0.00    +0.000 A 
ATOM     11  F   UNL     1       7.227  -0.931  -0.616  0.00  0.00    +0.000 F 
ATOM     12  C   UNL     1       7.283   1.144   0.588  0.00  0.00    +0.000 A 
ATOM     13  C   UNL     1       2.242   2.223   1.214  0.00  0.00    +0.000 A 
ENDBRANCH   4   7
ENDBRANCH   1   5
BRANCH   1  14
ATOM     14  C   UNL     1       5.092  -2.197  -1.350  0.00  0.00    +0.000 C 
ATOM     15  S   UNL     1       6.712  -2.197  -1.350  0.00  0.00    +0.000 S 
BRANCH  14  16
ATOM     16  N   UNL     1       4.357  -3.298  -1.989  0.00  0.00    +0.000 N 
ATOM     17  C   UNL     1       2.887  -3.298  -1.989  0.00  0.00    +0.000 C 
ATOM     18  O   UNL     1       2.252  -4.250  -2.541  0.00  0.00    +0.000 OA
ATOM     19  H   UNL     1       4.867  -4.062  -2.432  0.00  0.00    +0.000 HD
BRANCH  17  20
ATOM     20  C   UNL     1       2.127  -2.160  -1.328  0.00  0.00    +0.000 A 
ATOM     21  C   UNL     1       0.687  -2.160  -1.328  0.00  0.00    +0.000 A 
ATOM     22  C   UNL     1      -0.033  -3.238  -1.954  0.00  0.00    +0.000 A 
ATOM     23  C   UNL     1      -1.474  -3.238  -1.954  0.00  0.00    +0.000 A 
ATOM     24  O   UNL     1       2.800  -1.152  -0.744  0.00  0.00    +0.000 OA
ENDBRANCH  17  20
ENDBRANCH  14  16
ENDBRANCH   1  14
TORSDOF 5
