REMARK  Name = 
REMARK  2 active torsions:
REMARK  status: ('A' for Active; 'I' for Inactive)
REMARK    1  A    between atoms: N_3  and  C_4
REMARK    2  A    between atoms: N_11  and  C_12
REMARK                            x       y       z     vdW  Elec       q    Type
REMARK                         _______ _______ _______ _____ _____    ______ ____
ROOT
ATOM      1  O   UNL     1       0.909   0.031   0.028  0.00  0.00    +0.000 OA
ATOM      2  C   UNL     1       2.180   0.031   0.028  0.00  0.00    +0.000 C 
ATOM      3  N   UNL     1       2.915   1.145   0.644  0.00  0.00    +0.000 N 
ATOM      4  N   UNL     1       2.915  -1.083  -0.587  0.00  0.00    +0.000 N 
ATOM      5  H   UNL     1       2.405   1.919   1.072  0.00  0.00    +0.000 HD
ATOM      6  H   UNL     1       3.935  -1.083  -0.587  0.00  0.00    +0.000 HD
ENDROOT
BRANCH   4   7
ATOM      7  C   UNL     1       2.180  -2.197  -1.203  0.00  0.00    +0.000 A 
ATOM      8  C   UNL     1       0.740  -2.197  -1.203  0.00  0.00    +0.000 A 
ATOM      9  C   UNL     1       0.020  -1.106  -0.600  0.00  0.00    +0.000 A 
ATOM     10  C   UNL     1      -1.420  -1.106  -0.600  0.00  0.00    +0.000 A 
ATOM     11  C   UNL     1      -2.140  -2.197  -1.203  0.00  0.00    +0.000 A 
ATOM     12  C   UNL     1       2.900  -3.289  -1.807  0.00  0.00    +0.000 A 
ATOM     13  C   UNL     1      -3.660  -2.197  -1.203  0.00  0.00    +0.000 C 
ATOM     14  C   UNL     1      -4.167  -2.170   0.230  0.00  0.00    +0.000 C 
ATOM     15  C   UNL     1      -2.180   0.047   0.037  0.00  0.00    +0.000 C 
ENDBRANCH   4   7
BRANCH   3  16
ATOM     16  C   UNL     1       4.385   1.145   0.644  0.00  0.00    +0.000 A 
ATOM     17  C   UNL     1       5.105   0.054   0.041  0.00  0.00    +0.000 A 
ATOM     18  C   UNL     1       4.385  -1.038  -0.562  0.00  0.00    +0.000 A 
ATOM     19  C   UNL     1       5.105  -2.129  -1.166  0.00  0.00    +0.000 A 
ATOM     20  C   UNL     1       4.385  -3.221  -1.769  0.00  0.00    +0.000 A 
ATOM     21  F   UNL     1       3.055  -3.221  -1.769  0.00  0.00    +0.000 F 
ATOM     22  C   UNL     1       5.105   2.237   1.248  0.00  0.00    +0.000 A 
ENDBRANCH   3  16
TORSDOF 2
