REMARK  Name = 
REMARK  6 active torsions:
REMARK  status: ('A' for Active; 'I' for Inactive)
REMARK    1  A    between atoms: C_1  and  C_2
REMARK    2  A    between atoms: C_5  and  C_6
REMARK    3  A    between atoms: N_8  and  N_9
REMARK    4  A    between atoms: N_9  and  C_10
REMARK    5  A    between atoms: C_10  and  N_12
REMARK    6  A    between atoms: C_13  and  C_15
REMARK                            x       y       z     vdW  Elec       q    Type
REMARK                         _______ _______ _______ _____ _____    ______ ____
ROOT
ATOM      1  C   UNL     1       3.622  -3.519   0.903  0.00  0.00    +0.000 C 
ATOM      2  S   UNL     1       3.231  -3.166  -0.629  0.00  0.00    +0.000 S 
ENDROOT
BRANCH   1   3
ATOM      3  N   UNL     1       4.467  -4.686   1.196  0.00  0.00    +0.000 N 
ATOM      4  C   UNL     1       4.822  -5.006   2.586  0.00  0.00    +0.000 C 
ATOM      5  O   UNL     1       5.553  -6.015   2.838  0.00  0.00    +0.000 OA
ATOM      6  H   UNL     1       4.807  -5.273   0.434  0.00  0.00    +0.000 HD
BRANCH   4   7
ATOM      7  C   UNL     1       4.315  -4.131   3.720  0.00  0.00    +0.000 A 
ATOM      8  C   UNL     1       4.663  -4.445   5.082  0.00  0.00    +0.000 A 
ATOM      9  C   UNL     1       5.491  -5.588   5.369  0.00  0.00    +0.000 A 
ATOM     10  C   UNL     1       5.839  -5.902   6.731  0.00  0.00    +0.000 A 
ATOM     11 CL   UNL     1       6.863  -7.315   7.085  0.00  0.00    +0.000 Cl
ATOM     12  C   UNL     1       5.359  -5.073   7.806  0.00  0.00    +0.000 A 
ATOM     13  C   UNL     1       3.487  -2.988   3.434  0.00  0.00    +0.000 A 
ATOM     14 CL   UNL     1       3.057  -2.600   1.751  0.00  0.00    +0.000 Cl
ENDBRANCH   4   7
ENDBRANCH   1   3
BRANCH   1  15
ATOM     15  N   UNL     1       3.132  -2.673   2.001  0.00  0.00    +0.000 N 
ATOM     16  H   UNL     1       2.545  -1.863   1.798  0.00  0.00    +0.000 HD
BRANCH  15  19
ATOM     17  C   UNL     1       2.985  -2.136   4.441  0.00  0.00    +0.000 C 
ATOM     18  O   UNL     1       3.292  -2.413   5.643  0.00  0.00    +0.000 OA
ATOM     19  N   UNL     1       3.475  -2.982   3.343  0.00  0.00    +0.000 N 
ATOM     20  H   UNL     1       4.061  -3.792   3.546  0.00  0.00    +0.000 HD
BRANCH  17  25
ATOM     21  C   UNL     1       1.094  -0.034  -0.007  0.00  0.00    +0.000 C 
ATOM     22  C   UNL     1       0.587   0.841   1.128  0.00  0.00    +0.000 A 
ATOM     23  C   UNL     1       0.935   0.527   2.490  0.00  0.00    +0.000 A 
ATOM     24  C   UNL     1       1.763  -0.616   2.777  0.00  0.00    +0.000 A 
ATOM     25  C   UNL     1       2.111  -0.930   4.139  0.00  0.00    +0.000 A 
ATOM     26  C   UNL     1       1.631  -0.101   5.214  0.00  0.00    +0.000 A 
ATOM     27  C   UNL     1      -0.241   1.984   0.842  0.00  0.00    +0.000 A 
ENDBRANCH  17  25
ENDBRANCH  15  19
ENDBRANCH   1  15
TORSDOF 5
