REMARK  Name = 
REMARK  5 active torsions:
REMARK  status: ('A' for Active; 'I' for Inactive)
REMARK    1  A    between atoms: N_3  and  C_4
REMARK    2  A    between atoms: C_7  and  N_8
REMARK    3  A    between atoms: N_13  and  C_14
REMARK    4  A    between atoms: C_17  and  O_18
REMARK    5  A    between atoms: O_18  and  C_19
REMARK                            x       y       z     vdW  Elec       q    Type
REMARK                         _______ _______ _______ _____ _____    ______ ____
ROOT
ATOM      1  O   UNL     1       0.945   0.080  -0.024  0.00  0.00    +0.000 OA
ATOM      2  C   UNL     1       2.216   0.080  -0.024  0.00  0.00    +0.000 C 
ATOM      3  N   UNL     1       2.951   1.025   0.829  0.00  0.00    +0.000 N 
ATOM      4  N   UNL     1       2.951  -0.865  -0.877  0.00  0.00    +0.000 N 
ATOM      5  H   UNL     1       2.441   1.681   1.420  0.00  0.00    +0.000 HD
ATOM      6  H   UNL     1       3.971  -0.865  -0.877  0.00  0.00    +0.000 HD
ENDROOT
BRANCH   4   7
ATOM      7  C   UNL     1       2.216  -1.810  -1.729  0.00  0.00    +0.000 A 
ATOM      8  C   UNL     1       0.776  -1.810  -1.729  0.00  0.00    +0.000 A 
ATOM      9  C   UNL     1       0.056  -0.884  -0.894  0.00  0.00    +0.000 A 
ATOM     10  C   UNL     1      -1.384  -0.884  -0.894  0.00  0.00    +0.000 A 
ATOM     11  C   UNL     1      -2.104  -1.810  -1.729  0.00  0.00    +0.000 A 
ATOM     12 CL   UNL     1      -3.884  -1.810  -1.729  0.00  0.00    +0.000 Cl
ATOM     13  C   UNL     1       2.936  -2.737  -2.565  0.00  0.00    +0.000 A 
BRANCH  10  14
ATOM     14  O   UNL     1      -2.094   0.029  -0.070  0.00  0.00    +0.000 OA
BRANCH  14  15
ATOM     15  C   UNL     1      -1.384   0.942   0.753  0.00  0.00    +0.000 C 
ATOM     16  F   UNL     1      -0.620   0.267   1.607  0.00  0.00    +0.000 F 
ATOM     17  F   UNL     1      -0.620   1.722  -0.006  0.00  0.00    +0.000 F 
ENDBRANCH  14  15
ENDBRANCH  10  14
ENDBRANCH   4   7
BRANCH   3  18
ATOM     18  C   UNL     1       4.421   1.025   0.829  0.00  0.00    +0.000 A 
ATOM     19  C   UNL     1       5.141   0.099  -0.007  0.00  0.00    +0.000 A 
ATOM     20  C   UNL     1       4.421  -0.827  -0.842  0.00  0.00    +0.000 A 
ATOM     21  C   UNL     1       5.141  -1.753  -1.677  0.00  0.00    +0.000 A 
ATOM     22  C   UNL     1       6.581  -1.753  -1.677  0.00  0.00    +0.000 A 
ATOM     23  C   UNL     1       5.141   1.952   1.664  0.00  0.00    +0.000 A 
BRANCH  21  24
ATOM     24  N   UNL     1       4.406  -2.698  -2.530  0.00  0.00    +0.000 N 
ATOM     25  O   UNL     1       5.019  -3.487  -3.241  0.00  0.00    +0.000 OA
ATOM     26  O   UNL     1       3.036  -2.698  -2.530  0.00  0.00    +0.000 OA
ENDBRANCH  21  24
ENDBRANCH   3  18
TORSDOF 5
