REMARK  Name = 
REMARK  5 active torsions:
REMARK  status: ('A' for Active; 'I' for Inactive)
REMARK    1  A    between atoms: N_3  and  C_4
REMARK    2  A    between atoms: C_7  and  O_8
REMARK    3  A    between atoms: O_8  and  C_9
REMARK    4  A    between atoms: N_14  and  C_15
REMARK    5  A    between atoms: C_19  and  C_20
REMARK                            x       y       z     vdW  Elec       q    Type
REMARK                         _______ _______ _______ _____ _____    ______ ____
ROOT
ATOM      1  O   UNL     1       1.026   0.096  -0.004  0.00  0.00    +0.000 OA
ATOM      2  C   UNL     1       2.297   0.096  -0.004  0.00  0.00    +0.000 C 
ATOM      3  N   UNL     1       3.032  -0.334  -1.202  0.00  0.00    +0.000 N 
ATOM      4  N   UNL     1       3.032   0.527   1.194  0.00  0.00    +0.000 N 
ATOM      5  H   UNL     1       2.522  -0.633  -2.034  0.00  0.00    +0.000 HD
ATOM      6  H   UNL     1       4.052   0.527   1.194  0.00  0.00    +0.000 HD
ENDROOT
BRANCH   3   7
ATOM      7  C   UNL     1       4.502  -0.334  -1.202  0.00  0.00    +0.000 A 
ATOM      8  C   UNL     1       5.222   0.088  -0.029  0.00  0.00    +0.000 A 
ATOM      9  C   UNL     1       4.502   0.510   1.145  0.00  0.00    +0.000 A 
ATOM     10  C   UNL     1       5.222   0.932   2.319  0.00  0.00    +0.000 A 
ATOM     11  C   UNL     1       6.662   0.932   2.319  0.00  0.00    +0.000 A 
ATOM     12  C   UNL     1       5.222  -0.756  -2.376  0.00  0.00    +0.000 A 
BRANCH  10  13
ATOM     13  O   UNL     1       4.512   1.348   3.476  0.00  0.00    +0.000 OA
BRANCH  13  14
ATOM     14  C   UNL     1       3.092   1.348   3.476  0.00  0.00    +0.000 C 
ATOM     15  F   UNL     1       2.649   2.158   2.518  0.00  0.00    +0.000 F 
ATOM     16  F   UNL     1       2.649   0.114   3.253  0.00  0.00    +0.000 F 
ENDBRANCH  13  14
ENDBRANCH  10  13
ENDBRANCH   3   7
BRANCH   4  17
ATOM     17  C   UNL     1       2.297   0.958   2.392  0.00  0.00    +0.000 A 
ATOM     18  C   UNL     1       0.857   0.958   2.392  0.00  0.00    +0.000 A 
ATOM     19  C   UNL     1       0.137   0.536   1.218  0.00  0.00    +0.000 A 
ATOM     20  C   UNL     1      -1.303   0.536   1.218  0.00  0.00    +0.000 A 
ATOM     21  C   UNL     1      -2.024   0.114   0.044  0.00  0.00    +0.000 A 
ATOM     22  C   UNL     1       3.017   1.380   3.565  0.00  0.00    +0.000 A 
BRANCH  21  23
ATOM     23  C   UNL     1      -1.264  -0.332  -1.195  0.00  0.00    +0.000 C 
ATOM     24  F   UNL     1      -0.499   0.666  -1.628  0.00  0.00    +0.000 F 
ATOM     25  F   UNL     1      -0.499  -1.377  -0.893  0.00  0.00    +0.000 F 
ATOM     26  F   UNL     1      -2.128  -0.674  -2.146  0.00  0.00    +0.000 F 
ENDBRANCH  21  23
ENDBRANCH   4  17
TORSDOF 5
