REMARK  Name = 
REMARK  7 active torsions:
REMARK  status: ('A' for Active; 'I' for Inactive)
REMARK    1  A    between atoms: C_1  and  O_2
REMARK    2  A    between atoms: O_2  and  C_3
REMARK    3  A    between atoms: C_6  and  C_7
REMARK    4  A    between atoms: C_7  and  C_9
REMARK    5  A    between atoms: C_10  and  C_11
REMARK    6  A    between atoms: C_14  and  O_15
REMARK    7  A    between atoms: C_18  and  O_19
REMARK                            x       y       z     vdW  Elec       q    Type
REMARK                         _______ _______ _______ _____ _____    ______ ____
ROOT
ATOM      1  C   UNL     1      -4.924   2.484   0.260  0.00  0.00    +0.000 C 
ATOM      2  O   UNL     1      -5.286   3.703   0.263  0.00  0.00    +0.000 OA
ENDROOT
BRANCH   1   6
ATOM      3  C   UNL     1      -0.758   1.500   0.131  0.00  0.00    +0.000 A 
ATOM      4  C   UNL     1      -1.158   2.814   0.165  0.00  0.00    +0.000 A 
ATOM      5  C   UNL     1      -2.503   3.128   0.204  0.00  0.00    +0.000 A 
ATOM      6  C   UNL     1      -3.447   2.130   0.229  0.00  0.00    +0.000 A 
ATOM      7  C   UNL     1      -3.057   0.808   0.225  0.00  0.00    +0.000 A 
ATOM      8  C   UNL     1      -1.704   0.455   0.185  0.00  0.00    +0.000 A 
BRANCH   3  10
ATOM      9  C   UNL     1       1.043  -0.085   0.029  0.00  0.00    +0.000 C 
ATOM     10  O   UNL     1       0.570   1.253   0.067  0.00  0.00    +0.000 OA
ENDBRANCH   3  10
BRANCH   7  11
ATOM     11  O   UNL     1      -4.045  -0.211   0.262  0.00  0.00    +0.000 OA
ATOM     12  H   UNL     1      -3.771  -1.173   0.260  0.00  0.00    +0.000 HD
ENDBRANCH   7  11
ENDBRANCH   1   6
BRANCH   1  13
ATOM     13  C   UNL     1      -5.970   1.382   0.286  0.00  0.00    +0.000 C 
ATOM     14  C   UNL     1      -5.584   0.077   0.283  0.00  0.00    +0.000 C 
BRANCH  14  15
ATOM     15  C   UNL     1      -6.629  -1.026   0.310  0.00  0.00    +0.000 A 
ATOM     16  C   UNL     1      -7.733  -0.946  -0.511  0.00  0.00    +0.000 A 
ATOM     17  C   UNL     1      -8.704  -1.953  -0.514  0.00  0.00    +0.000 A 
ATOM     18  C   UNL     1      -8.501  -3.058   0.339  0.00  0.00    +0.000 A 
ATOM     19  C   UNL     1      -7.411  -3.111   1.175  0.00  0.00    +0.000 A 
ATOM     20  C   UNL     1      -6.471  -2.099   1.152  0.00  0.00    +0.000 A 
BRANCH  18  21
ATOM     21  O   UNL     1      -9.374  -4.089   0.385  0.00  0.00    +0.000 OA
ATOM     22  H   UNL     1     -10.180  -4.089  -0.207  0.00  0.00    +0.000 HD
ENDBRANCH  18  21
ENDBRANCH  14  15
ENDBRANCH   1  13
TORSDOF 6
