REMARK  Name = 
REMARK  7 active torsions:
REMARK  status: ('A' for Active; 'I' for Inactive)
REMARK    1  A    between atoms: C_1  and  O_2
REMARK    2  A    between atoms: O_2  and  C_3
REMARK    3  A    between atoms: C_6  and  C_7
REMARK    4  A    between atoms: C_8  and  C_9
REMARK    5  A    between atoms: C_9  and  C_11
REMARK    6  A    between atoms: C_14  and  O_15
REMARK    7  A    between atoms: C_17  and  O_18
REMARK                            x       y       z     vdW  Elec       q    Type
REMARK                         _______ _______ _______ _____ _____    ______ ____
ROOT
ATOM      1  C   UNL     1       1.568  -0.189   8.905  0.00  0.00    +0.000 C 
ATOM      2  O   UNL     1       0.718  -0.046   9.839  0.00  0.00    +0.000 OA
ENDROOT
BRANCH   1   3
ATOM      3  C   UNL     1       2.981  -0.648   9.228  0.00  0.00    +0.000 A 
ATOM      4  C   UNL     1       3.165  -1.701  10.108  0.00  0.00    +0.000 A 
ATOM      5  C   UNL     1       4.498  -1.846  10.559  0.00  0.00    +0.000 A 
ATOM      6  C   UNL     1       5.551  -1.309   9.969  0.00  0.00    +0.000 A 
ATOM      7  C   UNL     1       5.299  -0.321   9.058  0.00  0.00    +0.000 A 
ATOM      8  C   UNL     1       4.014  -0.032   8.665  0.00  0.00    +0.000 A 
BRANCH   6   9
ATOM      9  O   UNL     1       6.872  -1.736  10.264  0.00  0.00    +0.000 OA
ATOM     10  H   UNL     1       7.650  -1.311   9.800  0.00  0.00    +0.000 HD
ENDBRANCH   6   9
BRANCH   8  11
ATOM     11  O   UNL     1       3.790   0.933   7.649  0.00  0.00    +0.000 OA
ATOM     12  H   UNL     1       2.857   1.147   7.359  0.00  0.00    +0.000 HD
ENDBRANCH   8  11
ENDBRANCH   1   3
BRANCH   1  14
ATOM     13  C   UNL     1       2.082  -0.056   6.467  0.00  0.00    +0.000 C 
ATOM     14  C   UNL     1       1.172   0.098   7.466  0.00  0.00    +0.000 C 
BRANCH  13  18
ATOM     15  C   UNL     1       0.902   0.524   2.403  0.00  0.00    +0.000 A 
ATOM     16  C   UNL     1      -0.060   0.621   3.395  0.00  0.00    +0.000 A 
ATOM     17  C   UNL     1       0.469   0.632   4.707  0.00  0.00    +0.000 A 
ATOM     18  C   UNL     1       1.686   0.232   5.028  0.00  0.00    +0.000 A 
ATOM     19  C   UNL     1       2.571   0.089   3.995  0.00  0.00    +0.000 A 
ATOM     20  C   UNL     1       2.156   0.194   2.689  0.00  0.00    +0.000 A 
BRANCH  15  22
ATOM     21  C   UNL     1       1.032   0.093  -0.015  0.00  0.00    +0.000 C 
ATOM     22  O   UNL     1       0.559   0.877   1.071  0.00  0.00    +0.000 OA
ENDBRANCH  15  22
ENDBRANCH  13  18
ENDBRANCH   1  14
TORSDOF 6
