REMARK  Name = 
REMARK  10 active torsions:
REMARK  status: ('A' for Active; 'I' for Inactive)
REMARK    1  A    between atoms: C_2  and  C_3
REMARK    2  A    between atoms: C_2  and  C_14
REMARK    3  A    between atoms: C_3  and  C_4
REMARK    4  A    between atoms: C_4  and  C_5
REMARK    5  A    between atoms: C_5  and  C_6
REMARK    6  A    between atoms: C_6  and  C_7
REMARK    7  A    between atoms: C_10  and  O_11
REMARK    8  A    between atoms: C_14  and  C_15
REMARK    9  A    between atoms: C_15  and  C_16
REMARK   10  A    between atoms: C_19  and  O_20
REMARK                            x       y       z     vdW  Elec       q    Type
REMARK                         _______ _______ _______ _____ _____    ______ ____
ROOT
ATOM      1  O   UNL     1       0.943  -0.014  -0.081  0.00  0.00    +0.000 OA
ATOM      2  C   UNL     1       2.214  -0.014  -0.081  0.00  0.00    +0.000 C 
ENDROOT
BRANCH   2   3
ATOM      3  C   UNL     1       2.974   1.208   0.409  0.00  0.00    +0.000 C 
BRANCH   3   4
ATOM      4  C   UNL     1       3.848   0.821   1.591  0.00  0.00    +0.000 C 
BRANCH   4   5
ATOM      5  C   UNL     1       4.836  -0.251   1.161  0.00  0.00    +0.000 C 
BRANCH   5   6
ATOM      6  C   UNL     1       5.710   0.285   0.039  0.00  0.00    +0.000 C 
BRANCH   6   7
ATOM      7  C   UNL     1       6.470   1.507   0.529  0.00  0.00    +0.000 A 
ATOM      8  C   UNL     1       7.647   1.419   1.238  0.00  0.00    +0.000 A 
ATOM      9  C   UNL     1       8.294   2.568   1.706  0.00  0.00    +0.000 A 
ATOM     10  C   UNL     1       7.707   3.815   1.409  0.00  0.00    +0.000 A 
ATOM     11  C   UNL     1       6.517   3.888   0.725  0.00  0.00    +0.000 A 
ATOM     12  C   UNL     1       5.904   2.734   0.278  0.00  0.00    +0.000 A 
BRANCH  10  13
ATOM     13  O   UNL     1       8.275   4.979   1.799  0.00  0.00    +0.000 OA
ATOM     14  H   UNL     1       9.141   4.970   2.299  0.00  0.00    +0.000 HD
ENDBRANCH  10  13
ENDBRANCH   6   7
ENDBRANCH   5   6
ENDBRANCH   4   5
ENDBRANCH   3   4
ENDBRANCH   2   3
BRANCH   2  15
ATOM     15  C   UNL     1       2.974  -1.235  -0.571  0.00  0.00    +0.000 C 
BRANCH  15  16
ATOM     16  C   UNL     1       2.607  -2.437   0.284  0.00  0.00    +0.000 C 
BRANCH  16  17
ATOM     17  C   UNL     1       1.113  -2.695   0.180  0.00  0.00    +0.000 A 
ATOM     18  C   UNL     1       0.235  -1.635   0.116  0.00  0.00    +0.000 A 
ATOM     19  C   UNL     1      -1.143  -1.846   0.009  0.00  0.00    +0.000 A 
ATOM     20  C   UNL     1      -1.598  -3.179  -0.049  0.00  0.00    +0.000 A 
ATOM     21  C   UNL     1      -0.715  -4.229   0.047  0.00  0.00    +0.000 A 
ATOM     22  C   UNL     1       0.641  -3.985   0.152  0.00  0.00    +0.000 A 
BRANCH  20  23
ATOM     23  O   UNL     1      -2.910  -3.478  -0.176  0.00  0.00    +0.000 OA
ATOM     24  H   UNL     1      -3.586  -2.744  -0.248  0.00  0.00    +0.000 HD
ENDBRANCH  20  23
ENDBRANCH  16  17
ENDBRANCH  15  16
ENDBRANCH   2  15
TORSDOF 10
