REMARK  Name = 
REMARK  11 active torsions:
REMARK  status: ('A' for Active; 'I' for Inactive)
REMARK    1  A    between atoms: C_1  and  O_2
REMARK    2  A    between atoms: O_2  and  C_3
REMARK    3  A    between atoms: C_6  and  C_7
REMARK    4  A    between atoms: C_8  and  C_9
REMARK    5  A    between atoms: C_9  and  C_11
REMARK    6  A    between atoms: C_13  and  O_14
REMARK    7  A    between atoms: O_14  and  C_15
REMARK    8  A    between atoms: C_16  and  O_17
REMARK    9  A    between atoms: O_17  and  C_18
REMARK   10  A    between atoms: C_19  and  O_20
REMARK   11  A    between atoms: O_20  and  C_21
REMARK                            x       y       z     vdW  Elec       q    Type
REMARK                         _______ _______ _______ _____ _____    ______ ____
ROOT
ATOM      1  C   UNL     1       1.720   5.410   7.008  0.00  0.00    +0.000 C 
ATOM      2  O   UNL     1       0.891   6.140   7.637  0.00  0.00    +0.000 OA
ENDROOT
BRANCH   1   3
ATOM      3  C   UNL     1       3.137   5.244   7.532  0.00  0.00    +0.000 A 
ATOM      4  C   UNL     1       3.338   5.008   8.882  0.00  0.00    +0.000 A 
ATOM      5  C   UNL     1       4.682   5.164   9.297  0.00  0.00    +0.000 A 
ATOM      6  C   UNL     1       5.722   5.172   8.483  0.00  0.00    +0.000 A 
ATOM      7  C   UNL     1       5.452   5.341   7.153  0.00  0.00    +0.000 A 
ATOM      8  C   UNL     1       4.159   5.331   6.688  0.00  0.00    +0.000 A 
BRANCH   5   9
ATOM      9  O   UNL     1       4.930   5.324  10.686  0.00  0.00    +0.000 OA
ATOM     10  C   UNL     1       6.260   5.485  11.156  0.00  0.00    +0.000 C 
ENDBRANCH   5   9
BRANCH   6  11
ATOM     11  O   UNL     1       7.049   5.013   8.962  0.00  0.00    +0.000 OA
ATOM     12  C   UNL     1       8.139   5.027   8.053  0.00  0.00    +0.000 C 
ENDBRANCH   6  11
BRANCH   7  13
ATOM     13  O   UNL     1       6.522   5.531   6.240  0.00  0.00    +0.000 OA
ATOM     14  C   UNL     1       6.253   5.708   4.857  0.00  0.00    +0.000 C 
ENDBRANCH   7  13
ENDBRANCH   1   3
BRANCH   1  16
ATOM     15  C   UNL     1       2.181   3.923   5.057  0.00  0.00    +0.000 C 
ATOM     16  C   UNL     1       1.294   4.704   5.731  0.00  0.00    +0.000 C 
BRANCH  15  20
ATOM     17  C   UNL     1       0.915   1.754   1.603  0.00  0.00    +0.000 A 
ATOM     18  C   UNL     1      -0.024   2.488   2.308  0.00  0.00    +0.000 A 
ATOM     19  C   UNL     1       0.533   3.337   3.294  0.00  0.00    +0.000 A 
ATOM     20  C   UNL     1       1.755   3.217   3.781  0.00  0.00    +0.000 A 
ATOM     21  C   UNL     1       2.616   2.424   3.075  0.00  0.00    +0.000 A 
ATOM     22  C   UNL     1       2.173   1.665   2.018  0.00  0.00    +0.000 A 
BRANCH  17  24
ATOM     23  C   UNL     1       1.045  -0.086  -0.024  0.00  0.00    +0.000 C 
ATOM     24  O   UNL     1       0.572   1.202   0.340  0.00  0.00    +0.000 OA
ENDBRANCH  17  24
ENDBRANCH  15  20
ENDBRANCH   1  16
TORSDOF 7
