REMARK  Name = 
REMARK  5 active torsions:
REMARK  status: ('A' for Active; 'I' for Inactive)
REMARK    1  A    between atoms: C_1  and  O_2
REMARK    2  A    between atoms: O_2  and  C_3
REMARK    3  A    between atoms: C_6  and  C_7
REMARK    4  A    between atoms: C_19  and  O_20
REMARK    5  A    between atoms: O_20  and  C_21
REMARK                            x       y       z     vdW  Elec       q    Type
REMARK                         _______ _______ _______ _____ _____    ______ ____
ROOT
ATOM      1  C   UNL     1       2.147  -1.706   6.241  0.00  0.00    +0.000 A 
ATOM      2  C   UNL     1       3.486  -2.203   6.423  0.00  0.00    +0.000 A 
ATOM      3  C   UNL     1       4.428  -2.150   5.335  0.00  0.00    +0.000 A 
ATOM      4  O   UNL     1       5.610  -2.589   5.496  0.00  0.00    +0.000 OA
ATOM      5  C   UNL     1       4.009  -1.570   3.995  0.00  0.00    +0.000 A 
ATOM      6  C   UNL     1       4.264  -2.341   2.872  0.00  0.00    +0.000 A 
ATOM      7  C   UNL     1       3.997  -1.679   1.650  0.00  0.00    +0.000 A 
ATOM      8  C   UNL     1       3.250  -0.597   1.532  0.00  0.00    +0.000 A 
ATOM      9  C   UNL     1       2.977   0.083   2.686  0.00  0.00    +0.000 A 
ATOM     10  C   UNL     1       3.322  -0.437   3.911  0.00  0.00    +0.000 A 
ATOM     11  O   UNL     1       1.267  -1.755   7.258  0.00  0.00    +0.000 OA
ENDROOT
BRANCH   1  15
ATOM     12  C   UNL     1       0.898  -0.292   2.409  0.00  0.00    +0.000 A 
ATOM     13  C   UNL     1      -0.044  -0.396   3.419  0.00  0.00    +0.000 A 
ATOM     14  C   UNL     1       0.509  -0.660   4.694  0.00  0.00    +0.000 A 
ATOM     15  C   UNL     1       1.728  -1.125   4.901  0.00  0.00    +0.000 A 
ATOM     16  C   UNL     1       2.592  -1.058   3.843  0.00  0.00    +0.000 A 
ATOM     17  C   UNL     1       2.154  -0.683   2.596  0.00  0.00    +0.000 A 
BRANCH  12  19
ATOM     18  C   UNL     1       1.028  -0.088  -0.038  0.00  0.00    +0.000 C 
ATOM     19  O   UNL     1       0.555   0.390   1.212  0.00  0.00    +0.000 OA
ENDBRANCH  12  19
BRANCH  17  20
ATOM     20  O   UNL     1       3.052  -0.713   1.496  0.00  0.00    +0.000 OA
ATOM     21  C   UNL     1       2.606  -0.328   0.204  0.00  0.00    +0.000 C 
ENDBRANCH  17  20
ENDBRANCH   1  15
TORSDOF 3
