REMARK  Name = 
REMARK  7 active torsions:
REMARK  status: ('A' for Active; 'I' for Inactive)
REMARK    1  A    between atoms: C_1  and  O_2
REMARK    2  A    between atoms: O_2  and  C_3
REMARK    3  A    between atoms: C_5  and  C_6
REMARK    4  A    between atoms: C_7  and  C_8
REMARK    5  A    between atoms: C_11  and  O_12
REMARK    6  A    between atoms: C_16  and  O_17
REMARK    7  A    between atoms: O_17  and  C_18
REMARK                            x       y       z     vdW  Elec       q    Type
REMARK                         _______ _______ _______ _____ _____    ______ ____
ROOT
ATOM      1  C   UNL     1       0.845  -1.925   1.640  0.00  0.00    +0.000 A 
ATOM      2  C   UNL     1      -0.137  -2.741   2.176  0.00  0.00    +0.000 A 
ATOM      3  C   UNL     1       0.365  -3.907   2.802  0.00  0.00    +0.000 A 
ATOM      4  C   UNL     1       1.577  -4.397   2.611  0.00  0.00    +0.000 A 
ATOM      5  C   UNL     1       2.483  -3.563   2.015  0.00  0.00    +0.000 A 
ATOM      6  C   UNL     1       2.094  -2.352   1.496  0.00  0.00    +0.000 A 
ENDROOT
BRANCH   1   8
ATOM      7  C   UNL     1       0.975  -0.015   0.096  0.00  0.00    +0.000 C 
ATOM      8  O   UNL     1       0.502  -0.588   1.306  0.00  0.00    +0.000 OA
ENDBRANCH   1   8
BRANCH   3   9
ATOM      9  C   UNL     1      -0.553  -4.646   3.761  0.00  0.00    +0.000 C 
ATOM     10  C   UNL     1      -1.811  -4.182   3.992  0.00  0.00    +0.000 C 
BRANCH  10  11
ATOM     11  C   UNL     1      -2.729  -4.922   4.951  0.00  0.00    +0.000 A 
ATOM     12  C   UNL     1      -4.075  -5.093   4.672  0.00  0.00    +0.000 A 
ATOM     13  C   UNL     1      -4.856  -5.434   5.802  0.00  0.00    +0.000 A 
ATOM     14  C   UNL     1      -4.369  -5.906   6.934  0.00  0.00    +0.000 A 
ATOM     15  C   UNL     1      -3.021  -5.768   7.121  0.00  0.00    +0.000 A 
ATOM     16  C   UNL     1      -2.210  -5.317   6.108  0.00  0.00    +0.000 A 
BRANCH  14  17
ATOM     17  O   UNL     1      -5.199  -6.524   7.906  0.00  0.00    +0.000 OA
ATOM     18  H   UNL     1      -4.801  -6.872   8.755  0.00  0.00    +0.000 HD
ENDBRANCH  14  17
ENDBRANCH  10  11
ENDBRANCH   3   9
BRANCH   5  19
ATOM     19  O   UNL     1       3.845  -3.956   1.932  0.00  0.00    +0.000 OA
ATOM     20  C   UNL     1       4.794  -3.098   1.315  0.00  0.00    +0.000 C 
ENDBRANCH   5  19
TORSDOF 5
