REMARK  Name = 
REMARK  5 active torsions:
REMARK  status: ('A' for Active; 'I' for Inactive)
REMARK    1  A    between atoms: C_1  and  O_2
REMARK    2  A    between atoms: O_2  and  C_3
REMARK    3  A    between atoms: C_5  and  O_6
REMARK    4  A    between atoms: C_8  and  C_9
REMARK    5  A    between atoms: C_10  and  C_11
REMARK                            x       y       z     vdW  Elec       q    Type
REMARK                         _______ _______ _______ _____ _____    ______ ____
ROOT
ATOM      1  C   UNL     1       0.070  -0.767   2.152  0.00  0.00    +0.000 A 
ATOM      2  C   UNL     1      -0.337  -0.482   3.433  0.00  0.00    +0.000 A 
ATOM      3  C   UNL     1      -0.766  -1.499   4.265  0.00  0.00    +0.000 A 
ATOM      4  C   UNL     1      -0.769  -2.800   3.823  0.00  0.00    +0.000 A 
ATOM      5  C   UNL     1      -0.334  -3.101   2.551  0.00  0.00    +0.000 A 
ATOM      6  C   UNL     1       0.106  -2.096   1.683  0.00  0.00    +0.000 A 
ENDROOT
BRANCH   1   8
ATOM      7  C   UNL     1       0.927   0.041   0.055  0.00  0.00    +0.000 C 
ATOM      8  O   UNL     1       0.454   0.271   1.374  0.00  0.00    +0.000 OA
ENDBRANCH   1   8
BRANCH   3   9
ATOM      9  O   UNL     1      -1.205  -1.198   5.581  0.00  0.00    +0.000 OA
ATOM     10  H   UNL     1      -1.515  -1.932   6.185  0.00  0.00    +0.000 HD
ENDBRANCH   3   9
BRANCH   5  11
ATOM     11  C   UNL     1      -0.333  -4.547   2.084  0.00  0.00    +0.000 C 
ATOM     12  C   UNL     1      -0.758  -5.533   2.919  0.00  0.00    +0.000 C 
BRANCH  12  13
ATOM     13  C   UNL     1      -0.757  -6.979   2.452  0.00  0.00    +0.000 A 
ATOM     14  C   UNL     1      -1.861  -7.776   2.706  0.00  0.00    +0.000 A 
ATOM     15  C   UNL     1      -1.634  -9.156   2.492  0.00  0.00    +0.000 A 
ATOM     16  C   UNL     1      -0.632  -9.649   1.787  0.00  0.00    +0.000 A 
ATOM     17  C   UNL     1       0.397  -8.793   1.510  0.00  0.00    +0.000 A 
ATOM     18  C   UNL     1       0.302  -7.455   1.808  0.00  0.00    +0.000 A 
ENDBRANCH  12  13
ENDBRANCH   5  11
TORSDOF 4
