REMARK  Name = 
REMARK  9 active torsions:
REMARK  status: ('A' for Active; 'I' for Inactive)
REMARK    1  A    between atoms: C_1  and  O_2
REMARK    2  A    between atoms: O_2  and  C_3
REMARK    3  A    between atoms: C_6  and  C_7
REMARK    4  A    between atoms: C_7  and  C_9
REMARK    5  A    between atoms: C_10  and  C_11
REMARK    6  A    between atoms: C_17  and  O_18
REMARK    7  A    between atoms: O_18  and  C_19
REMARK    8  A    between atoms: C_20  and  O_21
REMARK    9  A    between atoms: O_21  and  C_22
REMARK                            x       y       z     vdW  Elec       q    Type
REMARK                         _______ _______ _______ _____ _____    ______ ____
ROOT
ATOM      1  C   UNL     1       0.924   2.070  -1.173  0.00  0.00    +0.000 A 
ATOM      2  C   UNL     1      -0.062   2.979  -1.518  0.00  0.00    +0.000 A 
ATOM      3  C   UNL     1       0.437   4.247  -1.902  0.00  0.00    +0.000 A 
ATOM      4  C   UNL     1       1.653   4.686  -1.633  0.00  0.00    +0.000 A 
ATOM      5  C   UNL     1       2.563   3.748  -1.232  0.00  0.00    +0.000 A 
ATOM      6  C   UNL     1       2.177   2.458  -0.963  0.00  0.00    +0.000 A 
ENDROOT
BRANCH   1   8
ATOM      7  C   UNL     1       1.055  -0.051   0.067  0.00  0.00    +0.000 C 
ATOM      8  O   UNL     1       0.581   0.698  -1.043  0.00  0.00    +0.000 OA
ENDBRANCH   1   8
BRANCH   4   9
ATOM      9  C   UNL     1       2.020   6.155  -1.764  0.00  0.00    +0.000 C 
ATOM     10  O   UNL     1       1.146   6.998  -2.140  0.00  0.00    +0.000 OA
BRANCH   9  11
ATOM     11  C   UNL     1       3.433   6.617  -1.444  0.00  0.00    +0.000 C 
ATOM     12  C   UNL     1       4.368   5.714  -1.041  0.00  0.00    +0.000 C 
BRANCH  12  13
ATOM     13  C   UNL     1       5.781   6.176  -0.721  0.00  0.00    +0.000 A 
ATOM     14  C   UNL     1       6.861   5.452  -1.198  0.00  0.00    +0.000 A 
ATOM     15  C   UNL     1       8.094   5.799  -0.598  0.00  0.00    +0.000 A 
ATOM     16  C   UNL     1       8.313   6.917   0.071  0.00  0.00    +0.000 A 
ATOM     17  C   UNL     1       7.207   7.622   0.455  0.00  0.00    +0.000 A 
ATOM     18  C   UNL     1       5.954   7.267   0.015  0.00  0.00    +0.000 A 
ENDBRANCH  12  13
ENDBRANCH   9  11
ENDBRANCH   4   9
BRANCH   5  19
ATOM     19  O   UNL     1       3.928   4.114  -1.091  0.00  0.00    +0.000 OA
ATOM     20  C   UNL     1       4.882   3.148  -0.674  0.00  0.00    +0.000 C 
ENDBRANCH   5  19
BRANCH   6  21
ATOM     21  O   UNL     1       3.125   1.530  -0.456  0.00  0.00    +0.000 OA
ATOM     22  C   UNL     1       2.732   0.195  -0.176  0.00  0.00    +0.000 C 
ENDBRANCH   6  21
TORSDOF 6
