REMARK  Name = 
REMARK  6 active torsions:
REMARK  status: ('A' for Active; 'I' for Inactive)
REMARK    1  A    between atoms: C_1  and  O_2
REMARK    2  A    between atoms: O_2  and  C_3
REMARK    3  A    between atoms: C_6  and  C_7
REMARK    4  A    between atoms: C_8  and  C_9
REMARK    5  A    between atoms: C_11  and  O_12
REMARK    6  A    between atoms: C_14  and  O_15
REMARK                            x       y       z     vdW  Elec       q    Type
REMARK                         _______ _______ _______ _____ _____    ______ ____
ROOT
ATOM      1  C   UNL     1       2.152   5.840  -2.711  0.00  0.00    +0.000 C 
ATOM      2  C   UNL     1       1.266   6.724  -3.245  0.00  0.00    +0.000 C 
ENDROOT
BRANCH   1   6
ATOM      3  C   UNL     1       0.842   1.942  -1.559  0.00  0.00    +0.000 A 
ATOM      4  C   UNL     1      -0.095   2.844  -2.038  0.00  0.00    +0.000 A 
ATOM      5  C   UNL     1       0.470   4.016  -2.592  0.00  0.00    +0.000 A 
ATOM      6  C   UNL     1       1.707   4.426  -2.378  0.00  0.00    +0.000 A 
ATOM      7  C   UNL     1       2.567   3.508  -1.840  0.00  0.00    +0.000 A 
ATOM      8  C   UNL     1       2.112   2.290  -1.395  0.00  0.00    +0.000 A 
BRANCH   3  10
ATOM      9  C   UNL     1       0.972   0.084   0.047  0.00  0.00    +0.000 C 
ATOM     10  O   UNL     1       0.498   0.617  -1.181  0.00  0.00    +0.000 OA
ENDBRANCH   3  10
ENDBRANCH   1   6
BRANCH   2  11
ATOM     11  C   UNL     1      -0.169   6.296  -3.509  0.00  0.00    +0.000 A 
ATOM     12  C   UNL     1      -0.803   6.589  -4.705  0.00  0.00    +0.000 A 
ATOM     13  C   UNL     1      -2.200   6.364  -4.683  0.00  0.00    +0.000 A 
ATOM     14  C   UNL     1      -2.825   5.620  -3.788  0.00  0.00    +0.000 A 
ATOM     15  C   UNL     1      -2.120   5.307  -2.658  0.00  0.00    +0.000 A 
ATOM     16  C   UNL     1      -0.784   5.611  -2.552  0.00  0.00    +0.000 A 
BRANCH  13  17
ATOM     17  O   UNL     1      -2.985   6.980  -5.693  0.00  0.00    +0.000 OA
ATOM     18  H   UNL     1      -3.975   6.844  -5.710  0.00  0.00    +0.000 HD
ENDBRANCH  13  17
BRANCH  15  19
ATOM     19  O   UNL     1      -2.778   4.659  -1.580  0.00  0.00    +0.000 OA
ATOM     20  H   UNL     1      -2.270   4.427  -0.751  0.00  0.00    +0.000 HD
ENDBRANCH  15  19
ENDBRANCH   2  11
TORSDOF 5
