REMARK  Name = 
REMARK  6 active torsions:
REMARK  status: ('A' for Active; 'I' for Inactive)
REMARK    1  A    between atoms: C_1  and  O_2
REMARK    2  A    between atoms: O_2  and  C_3
REMARK    3  A    between atoms: C_6  and  C_7
REMARK    4  A    between atoms: C_7  and  C_9
REMARK    5  A    between atoms: C_10  and  C_11
REMARK    6  A    between atoms: C_17  and  O_18
REMARK                            x       y       z     vdW  Elec       q    Type
REMARK                         _______ _______ _______ _____ _____    ______ ____
ROOT
ATOM      1  C   UNL     1       0.826  -1.964   1.161  0.00  0.00    +0.000 A 
ATOM      2  C   UNL     1       0.514  -2.645   2.314  0.00  0.00    +0.000 A 
ATOM      3  C   UNL     1       0.734  -4.007   2.393  0.00  0.00    +0.000 A 
ATOM      4  C   UNL     1       1.280  -4.684   1.330  0.00  0.00    +0.000 A 
ATOM      5  C   UNL     1       1.624  -4.007   0.181  0.00  0.00    +0.000 A 
ATOM      6  C   UNL     1       1.416  -2.628   0.066  0.00  0.00    +0.000 A 
ENDROOT
BRANCH   1   8
ATOM      7  C   UNL     1       1.038   0.092   0.008  0.00  0.00    +0.000 C 
ATOM      8  O   UNL     1       0.565  -0.637   1.131  0.00  0.00    +0.000 OA
ENDBRANCH   1   8
BRANCH   4   9
ATOM      9  C   UNL     1       1.507  -6.184   1.422  0.00  0.00    +0.000 C 
ATOM     10  O   UNL     1       1.190  -6.811   2.482  0.00  0.00    +0.000 OA
BRANCH   9  11
ATOM     11  C   UNL     1       2.111  -6.935   0.247  0.00  0.00    +0.000 C 
ATOM     12  C   UNL     1       2.450  -6.265  -0.887  0.00  0.00    +0.000 C 
BRANCH  12  13
ATOM     13  C   UNL     1       3.055  -7.016  -2.062  0.00  0.00    +0.000 A 
ATOM     14  C   UNL     1       4.232  -6.492  -2.571  0.00  0.00    +0.000 A 
ATOM     15  C   UNL     1       4.678  -7.129  -3.753  0.00  0.00    +0.000 A 
ATOM     16  C   UNL     1       4.270  -8.315  -4.165  0.00  0.00    +0.000 A 
ATOM     17  C   UNL     1       3.139  -8.808  -3.575  0.00  0.00    +0.000 A 
ATOM     18  C   UNL     1       2.570  -8.172  -2.498  0.00  0.00    +0.000 A 
ENDBRANCH  12  13
ENDBRANCH   9  11
ENDBRANCH   4   9
BRANCH   5  19
ATOM     19  O   UNL     1       2.199  -4.719  -0.905  0.00  0.00    +0.000 OA
ATOM     20  H   UNL     1       2.451  -4.235  -1.743  0.00  0.00    +0.000 HD
ENDBRANCH   5  19
TORSDOF 5
