MODEL 1
REMARK VINA RESULT:    -5.349      0.000      0.000
REMARK INTER + INTRA:          13.102
REMARK INTER:                  -6.183
REMARK INTRA:                  19.285
REMARK UNBOUND:                19.389
REMARK  Name = 
REMARK  5 active torsions:
REMARK  status: ('A' for Active; 'I' for Inactive)
REMARK    1  A    between atoms: C_1  and  O_2
REMARK    2  A    between atoms: O_2  and  C_3
REMARK    3  A    between atoms: C_6  and  O_7
REMARK    4  A    between atoms: O_7  and  C_8
REMARK    5  A    between atoms: C_9  and  C_10
REMARK                            x       y       z     vdW  Elec       q    Type
REMARK                         _______ _______ _______ _____ _____    ______ ____
ROOT
ATOM      1  C   UNL     1      55.586 -31.704  23.004  0.00  0.00    +0.000 A 
ATOM      2  C   UNL     1      55.155 -31.463  21.652  0.00  0.00    +0.000 A 
ATOM      3  C   UNL     1      54.716 -30.149  21.258  0.00  0.00    +0.000 A 
ATOM      4  O   UNL     1      54.336 -29.937  20.065  0.00  0.00    +0.000 OA
ATOM      5  C   UNL     1      54.709 -29.015  22.272  0.00  0.00    +0.000 A 
ATOM      6  C   UNL     1      53.609 -28.178  22.349  0.00  0.00    +0.000 A 
ATOM      7  C   UNL     1      53.833 -27.004  23.107  0.00  0.00    +0.000 A 
ATOM      8  C   UNL     1      54.825 -26.846  23.965  0.00  0.00    +0.000 A 
ATOM      9  C   UNL     1      55.850 -27.747  23.884  0.00  0.00    +0.000 A 
ATOM     10  C   UNL     1      55.758 -28.849  23.068  0.00  0.00    +0.000 A 
ATOM     11  O   UNL     1      55.996 -32.932  23.372  0.00  0.00    +0.000 OA
ENDROOT
BRANCH   1  16
ATOM     12  C   UNL     1      56.783 -28.965  25.235  0.00  0.00    +0.000 A 
ATOM     13  C   UNL     1      55.627 -28.533  25.865  0.00  0.00    +0.000 A 
ATOM     14  C   UNL     1      54.504 -29.360  25.629  0.00  0.00    +0.000 A 
ATOM     15  C   UNL     1      54.411 -30.237  24.647  0.00  0.00    +0.000 A 
ATOM     16  C   UNL     1      55.578 -30.570  24.018  0.00  0.00    +0.000 A 
ATOM     17  C   UNL     1      56.745 -29.898  24.289  0.00  0.00    +0.000 A 
BRANCH  12  19
ATOM     18  C   UNL     1      58.575 -29.054  26.918  0.00  0.00    +0.000 C 
ATOM     19  O   UNL     1      58.039 -28.512  25.720  0.00  0.00    +0.000 OA
ENDBRANCH  12  19
BRANCH  15  20
ATOM     20  O   UNL     1      53.166 -30.803  24.263  0.00  0.00    +0.000 OA
ATOM     21  C   UNL     1      52.518 -31.735  25.114  0.00  0.00    +0.000 C 
ENDBRANCH  15  20
ENDBRANCH   1  16
TORSDOF 3
ENDMDL
MODEL 2
REMARK VINA RESULT:    -5.232      3.515      6.122
REMARK INTER + INTRA:          13.240
REMARK INTER:                  -5.980
REMARK INTRA:                  19.220
REMARK UNBOUND:                19.389
REMARK  Name = 
REMARK  5 active torsions:
REMARK  status: ('A' for Active; 'I' for Inactive)
REMARK    1  A    between atoms: C_1  and  O_2
REMARK    2  A    between atoms: O_2  and  C_3
REMARK    3  A    between atoms: C_6  and  O_7
REMARK    4  A    between atoms: O_7  and  C_8
REMARK    5  A    between atoms: C_9  and  C_10
REMARK                            x       y       z     vdW  Elec       q    Type
REMARK                         _______ _______ _______ _____ _____    ______ ____
ROOT
ATOM      1  C   UNL     1      56.175 -26.429  28.748  0.00  0.00    +0.000 A 
ATOM      2  C   UNL     1      54.977 -26.656  29.513  0.00  0.00    +0.000 A 
ATOM      3  C   UNL     1      53.693 -26.643  28.862  0.00  0.00    +0.000 A 
ATOM      4  O   UNL     1      52.636 -26.843  29.537  0.00  0.00    +0.000 OA
ATOM      5  C   UNL     1      53.602 -26.390  27.365  0.00  0.00    +0.000 A 
ATOM      6  C   UNL     1      52.648 -25.512  26.880  0.00  0.00    +0.000 A 
ATOM      7  C   UNL     1      52.466 -25.580  25.478  0.00  0.00    +0.000 A 
ATOM      8  C   UNL     1      53.327 -26.126  24.637  0.00  0.00    +0.000 A 
ATOM      9  C   UNL     1      54.287 -26.929  25.186  0.00  0.00    +0.000 A 
ATOM     10  C   UNL     1      54.442 -27.015  26.549  0.00  0.00    +0.000 A 
ATOM     11  O   UNL     1      57.376 -26.441  29.357  0.00  0.00    +0.000 OA
ENDROOT
BRANCH   1  16
ATOM     12  C   UNL     1      56.330 -26.992  25.065  0.00  0.00    +0.000 A 
ATOM     13  C   UNL     1      55.965 -25.765  24.535  0.00  0.00    +0.000 A 
ATOM     14  C   UNL     1      55.875 -24.730  25.495  0.00  0.00    +0.000 A 
ATOM     15  C   UNL     1      55.778 -24.923  26.798  0.00  0.00    +0.000 A 
ATOM     16  C   UNL     1      56.085 -26.175  27.251  0.00  0.00    +0.000 A 
ATOM     17  C   UNL     1      56.315 -27.208  26.375  0.00  0.00    +0.000 A 
BRANCH  12  19
ATOM     18  C   UNL     1      57.287 -29.232  24.723  0.00  0.00    +0.000 C 
ATOM     19  O   UNL     1      56.875 -27.978  24.200  0.00  0.00    +0.000 OA
ENDBRANCH  12  19
BRANCH  15  20
ATOM     20  O   UNL     1      55.374 -23.885  27.680  0.00  0.00    +0.000 OA
ATOM     21  C   UNL     1      56.202 -22.747  27.862  0.00  0.00    +0.000 C 
ENDBRANCH  15  20
ENDBRANCH   1  16
TORSDOF 3
ENDMDL
MODEL 3
REMARK VINA RESULT:    -5.177      1.875      4.855
REMARK INTER + INTRA:          13.304
REMARK INTER:                  -6.030
REMARK INTRA:                  19.335
REMARK UNBOUND:                19.389
REMARK  Name = 
REMARK  5 active torsions:
REMARK  status: ('A' for Active; 'I' for Inactive)
REMARK    1  A    between atoms: C_1  and  O_2
REMARK    2  A    between atoms: O_2  and  C_3
REMARK    3  A    between atoms: C_6  and  O_7
REMARK    4  A    between atoms: O_7  and  C_8
REMARK    5  A    between atoms: C_9  and  C_10
REMARK                            x       y       z     vdW  Elec       q    Type
REMARK                         _______ _______ _______ _____ _____    ______ ____
ROOT
ATOM      1  C   UNL     1      54.973 -26.602  24.721  0.00  0.00    +0.000 A 
ATOM      2  C   UNL     1      56.399 -26.671  24.907  0.00  0.00    +0.000 A 
ATOM      3  C   UNL     1      57.125 -27.839  24.482  0.00  0.00    +0.000 A 
ATOM      4  O   UNL     1      58.383 -27.900  24.647  0.00  0.00    +0.000 OA
ATOM      5  C   UNL     1      56.386 -29.001  23.838  0.00  0.00    +0.000 A 
ATOM      6  C   UNL     1      56.673 -30.296  24.236  0.00  0.00    +0.000 A 
ATOM      7  C   UNL     1      56.148 -31.290  23.375  0.00  0.00    +0.000 A 
ATOM      8  C   UNL     1      55.186 -31.085  22.494  0.00  0.00    +0.000 A 
ATOM      9  C   UNL     1      54.903 -29.781  22.194  0.00  0.00    +0.000 A 
ATOM     10  C   UNL     1      55.475 -28.753  22.904  0.00  0.00    +0.000 A 
ATOM     11  O   UNL     1      54.294 -25.509  25.118  0.00  0.00    +0.000 OA
ENDROOT
BRANCH   1  16
ATOM     12  C   UNL     1      53.175 -28.658  22.182  0.00  0.00    +0.000 A 
ATOM     13  C   UNL     1      52.868 -29.822  22.868  0.00  0.00    +0.000 A 
ATOM     14  C   UNL     1      53.128 -29.755  24.257  0.00  0.00    +0.000 A 
ATOM     15  C   UNL     1      53.909 -28.856  24.830  0.00  0.00    +0.000 A 
ATOM     16  C   UNL     1      54.233 -27.763  24.076  0.00  0.00    +0.000 A 
ATOM     17  C   UNL     1      53.899 -27.698  22.746  0.00  0.00    +0.000 A 
BRANCH  12  19
ATOM     18  C   UNL     1      51.705 -29.403  20.356  0.00  0.00    +0.000 C 
ATOM     19  O   UNL     1      52.575 -28.430  20.916  0.00  0.00    +0.000 OA
ENDBRANCH  12  19
BRANCH  15  20
ATOM     20  O   UNL     1      54.388 -29.020  26.158  0.00  0.00    +0.000 OA
ATOM     21  C   UNL     1      54.379 -30.304  26.762  0.00  0.00    +0.000 C 
ENDBRANCH  15  20
ENDBRANCH   1  16
TORSDOF 3
ENDMDL
MODEL 4
REMARK VINA RESULT:    -5.055      1.933      3.523
REMARK INTER + INTRA:          13.447
REMARK INTER:                  -5.880
REMARK INTRA:                  19.327
REMARK UNBOUND:                19.389
REMARK  Name = 
REMARK  5 active torsions:
REMARK  status: ('A' for Active; 'I' for Inactive)
REMARK    1  A    between atoms: C_1  and  O_2
REMARK    2  A    between atoms: O_2  and  C_3
REMARK    3  A    between atoms: C_6  and  O_7
REMARK    4  A    between atoms: O_7  and  C_8
REMARK    5  A    between atoms: C_9  and  C_10
REMARK                            x       y       z     vdW  Elec       q    Type
REMARK                         _______ _______ _______ _____ _____    ______ ____
ROOT
ATOM      1  C   UNL     1      57.011 -29.766  26.960  0.00  0.00    +0.000 A 
ATOM      2  C   UNL     1      57.670 -30.861  26.296  0.00  0.00    +0.000 A 
ATOM      3  C   UNL     1      57.448 -31.090  24.892  0.00  0.00    +0.000 A 
ATOM      4  O   UNL     1      58.029 -32.056  24.307  0.00  0.00    +0.000 OA
ATOM      5  C   UNL     1      56.517 -30.177  24.111  0.00  0.00    +0.000 A 
ATOM      6  C   UNL     1      55.592 -30.730  23.242  0.00  0.00    +0.000 A 
ATOM      7  C   UNL     1      54.995 -29.791  22.367  0.00  0.00    +0.000 A 
ATOM      8  C   UNL     1      55.002 -28.484  22.553  0.00  0.00    +0.000 A 
ATOM      9  C   UNL     1      55.891 -28.006  23.475  0.00  0.00    +0.000 A 
ATOM     10  C   UNL     1      56.607 -28.863  24.276  0.00  0.00    +0.000 A 
ATOM     11  O   UNL     1      57.219 -29.551  28.273  0.00  0.00    +0.000 OA
ENDROOT
BRANCH   1  16
ATOM     12  C   UNL     1      55.732 -26.795  25.105  0.00  0.00    +0.000 A 
ATOM     13  C   UNL     1      54.431 -27.148  24.787  0.00  0.00    +0.000 A 
ATOM     14  C   UNL     1      53.990 -28.337  25.415  0.00  0.00    +0.000 A 
ATOM     15  C   UNL     1      54.789 -29.240  25.954  0.00  0.00    +0.000 A 
ATOM     16  C   UNL     1      56.080 -28.852  26.179  0.00  0.00    +0.000 A 
ATOM     17  C   UNL     1      56.549 -27.649  25.711  0.00  0.00    +0.000 A 
BRANCH  12  19
ATOM     18  C   UNL     1      55.742 -24.447  25.839  0.00  0.00    +0.000 C 
ATOM     19  O   UNL     1      56.143 -25.449  24.916  0.00  0.00    +0.000 OA
ENDBRANCH  12  19
BRANCH  15  20
ATOM     20  O   UNL     1      54.331 -30.544  26.281  0.00  0.00    +0.000 OA
ATOM     21  C   UNL     1      53.176 -31.070  25.645  0.00  0.00    +0.000 C 
ENDBRANCH  15  20
ENDBRANCH   1  16
TORSDOF 3
ENDMDL
MODEL 5
REMARK VINA RESULT:    -5.021     12.622     15.010
REMARK INTER + INTRA:          13.487
REMARK INTER:                  -5.902
REMARK INTRA:                  19.389
REMARK UNBOUND:                19.389
REMARK  Name = 
REMARK  5 active torsions:
REMARK  status: ('A' for Active; 'I' for Inactive)
REMARK    1  A    between atoms: C_1  and  O_2
REMARK    2  A    between atoms: O_2  and  C_3
REMARK    3  A    between atoms: C_6  and  O_7
REMARK    4  A    between atoms: O_7  and  C_8
REMARK    5  A    between atoms: C_9  and  C_10
REMARK                            x       y       z     vdW  Elec       q    Type
REMARK                         _______ _______ _______ _____ _____    ______ ____
ROOT
ATOM      1  C   UNL     1      51.329 -30.380  11.076  0.00  0.00    +0.000 A 
ATOM      2  C   UNL     1      51.810 -31.393  11.980  0.00  0.00    +0.000 A 
ATOM      3  C   UNL     1      52.985 -32.157  11.646  0.00  0.00    +0.000 A 
ATOM      4  O   UNL     1      53.408 -33.051  12.443  0.00  0.00    +0.000 OA
ATOM      5  C   UNL     1      53.716 -31.895  10.340  0.00  0.00    +0.000 A 
ATOM      6  C   UNL     1      54.121 -32.964   9.559  0.00  0.00    +0.000 A 
ATOM      7  C   UNL     1      55.034 -32.614   8.536  0.00  0.00    +0.000 A 
ATOM      8  C   UNL     1      55.229 -31.384   8.095  0.00  0.00    +0.000 A 
ATOM      9  C   UNL     1      54.745 -30.374   8.878  0.00  0.00    +0.000 A 
ATOM     10  C   UNL     1      53.954 -30.642   9.969  0.00  0.00    +0.000 A 
ATOM     11  O   UNL     1      50.232 -29.666  11.388  0.00  0.00    +0.000 OA
ENDROOT
BRANCH   1  16
ATOM     12  C   UNL     1      53.531 -28.767   8.535  0.00  0.00    +0.000 A 
ATOM     13  C   UNL     1      53.388 -29.579   7.422  0.00  0.00    +0.000 A 
ATOM     14  C   UNL     1      52.365 -30.548   7.547  0.00  0.00    +0.000 A 
ATOM     15  C   UNL     1      51.826 -30.925   8.692  0.00  0.00    +0.000 A 
ATOM     16  C   UNL     1      52.061 -30.117   9.770  0.00  0.00    +0.000 A 
ATOM     17  C   UNL     1      52.947 -29.071   9.689  0.00  0.00    +0.000 A 
BRANCH  12  19
ATOM     18  C   UNL     1      54.807 -26.904   9.512  0.00  0.00    +0.000 C 
ATOM     19  O   UNL     1      54.183 -27.513   8.391  0.00  0.00    +0.000 OA
ENDBRANCH  12  19
BRANCH  15  20
ATOM     20  O   UNL     1      51.046 -32.107   8.798  0.00  0.00    +0.000 OA
ATOM     21  C   UNL     1      49.656 -32.067   8.517  0.00  0.00    +0.000 C 
ENDBRANCH  15  20
ENDBRANCH   1  16
TORSDOF 3
ENDMDL
