MODEL 1
REMARK VINA RESULT:    -5.182      0.000      0.000
REMARK INTER + INTRA:          -6.876
REMARK INTER:                  -6.404
REMARK INTRA:                  -0.472
REMARK UNBOUND:                -0.482
REMARK  Name = 
REMARK  6 active torsions:
REMARK  status: ('A' for Active; 'I' for Inactive)
REMARK    1  A    between atoms: C_1  and  O_2
REMARK    2  A    between atoms: O_2  and  C_3
REMARK    3  A    between atoms: C_5  and  C_6
REMARK    4  A    between atoms: C_7  and  C_8
REMARK    5  A    between atoms: C_15  and  O_16
REMARK    6  A    between atoms: O_16  and  C_17
REMARK                            x       y       z     vdW  Elec       q    Type
REMARK                         _______ _______ _______ _____ _____    ______ ____
ROOT
ATOM      1  C   UNL     1      57.209 -28.737  24.886  0.00  0.00    +0.000 A 
ATOM      2  C   UNL     1      56.504 -27.562  24.685  0.00  0.00    +0.000 A 
ATOM      3  C   UNL     1      55.242 -27.747  24.074  0.00  0.00    +0.000 A 
ATOM      4  C   UNL     1      54.880 -28.835  23.418  0.00  0.00    +0.000 A 
ATOM      5  C   UNL     1      55.657 -29.945  23.605  0.00  0.00    +0.000 A 
ATOM      6  C   UNL     1      56.838 -29.870  24.302  0.00  0.00    +0.000 A 
ENDROOT
BRANCH   1   8
ATOM      7  C   UNL     1      58.391 -29.118  27.008  0.00  0.00    +0.000 C 
ATOM      8  O   UNL     1      58.399 -28.676  25.660  0.00  0.00    +0.000 OA
ENDBRANCH   1   8
BRANCH   3   9
ATOM      9  C   UNL     1      54.232 -26.617  24.179  0.00  0.00    +0.000 C 
ATOM     10  C   UNL     1      52.900 -26.890  24.158  0.00  0.00    +0.000 C 
BRANCH  10  11
ATOM     11  C   UNL     1      51.890 -25.759  24.262  0.00  0.00    +0.000 A 
ATOM     12  C   UNL     1      50.876 -25.591  23.333  0.00  0.00    +0.000 A 
ATOM     13  C   UNL     1      50.169 -24.373  23.470  0.00  0.00    +0.000 A 
ATOM     14  C   UNL     1      50.182 -23.616  24.553  0.00  0.00    +0.000 A 
ATOM     15  C   UNL     1      51.167 -23.876  25.465  0.00  0.00    +0.000 A 
ATOM     16  C   UNL     1      51.983 -24.974  25.330  0.00  0.00    +0.000 A 
ENDBRANCH  10  11
ENDBRANCH   3   9
BRANCH   5  17
ATOM     17  O   UNL     1      55.236 -31.191  23.072  0.00  0.00    +0.000 OA
ATOM     18  C   UNL     1      55.078 -31.346  21.669  0.00  0.00    +0.000 C 
ENDBRANCH   5  17
TORSDOF 4
ENDMDL
MODEL 2
REMARK VINA RESULT:    -4.995      2.427      3.318
REMARK INTER + INTRA:          -6.644
REMARK INTER:                  -6.184
REMARK INTRA:                  -0.461
REMARK UNBOUND:                -0.482
REMARK  Name = 
REMARK  6 active torsions:
REMARK  status: ('A' for Active; 'I' for Inactive)
REMARK    1  A    between atoms: C_1  and  O_2
REMARK    2  A    between atoms: O_2  and  C_3
REMARK    3  A    between atoms: C_5  and  C_6
REMARK    4  A    between atoms: C_7  and  C_8
REMARK    5  A    between atoms: C_15  and  O_16
REMARK    6  A    between atoms: O_16  and  C_17
REMARK                            x       y       z     vdW  Elec       q    Type
REMARK                         _______ _______ _______ _____ _____    ______ ____
ROOT
ATOM      1  C   UNL     1      55.660 -30.867  23.308  0.00  0.00    +0.000 A 
ATOM      2  C   UNL     1      55.785 -29.548  23.712  0.00  0.00    +0.000 A 
ATOM      3  C   UNL     1      55.047 -28.634  22.923  0.00  0.00    +0.000 A 
ATOM      4  C   UNL     1      54.576 -28.895  21.718  0.00  0.00    +0.000 A 
ATOM      5  C   UNL     1      54.542 -30.212  21.350  0.00  0.00    +0.000 A 
ATOM      6  C   UNL     1      55.127 -31.179  22.133  0.00  0.00    +0.000 A 
ENDROOT
BRANCH   1   8
ATOM      7  C   UNL     1      57.594 -31.868  24.449  0.00  0.00    +0.000 C 
ATOM      8  O   UNL     1      56.208 -31.875  24.145  0.00  0.00    +0.000 OA
ENDBRANCH   1   8
BRANCH   3   9
ATOM      9  C   UNL     1      54.778 -27.255  23.503  0.00  0.00    +0.000 C 
ATOM     10  C   UNL     1      55.043 -27.005  24.814  0.00  0.00    +0.000 C 
BRANCH  10  11
ATOM     11  C   UNL     1      54.773 -25.626  25.394  0.00  0.00    +0.000 A 
ATOM     12  C   UNL     1      55.755 -24.651  25.457  0.00  0.00    +0.000 A 
ATOM     13  C   UNL     1      55.387 -23.514  26.215  0.00  0.00    +0.000 A 
ATOM     14  C   UNL     1      54.145 -23.201  26.540  0.00  0.00    +0.000 A 
ATOM     15  C   UNL     1      53.209 -24.187  26.391  0.00  0.00    +0.000 A 
ATOM     16  C   UNL     1      53.527 -25.375  25.777  0.00  0.00    +0.000 A 
ENDBRANCH  10  11
ENDBRANCH   3   9
BRANCH   5  17
ATOM     17  O   UNL     1      53.895 -30.586  20.144  0.00  0.00    +0.000 OA
ATOM     18  C   UNL     1      52.734 -29.889  19.715  0.00  0.00    +0.000 C 
ENDBRANCH   5  17
TORSDOF 4
ENDMDL
MODEL 3
REMARK VINA RESULT:    -4.988      1.427      1.858
REMARK INTER + INTRA:          -6.636
REMARK INTER:                  -6.179
REMARK INTRA:                  -0.458
REMARK UNBOUND:                -0.482
REMARK  Name = 
REMARK  6 active torsions:
REMARK  status: ('A' for Active; 'I' for Inactive)
REMARK    1  A    between atoms: C_1  and  O_2
REMARK    2  A    between atoms: O_2  and  C_3
REMARK    3  A    between atoms: C_5  and  C_6
REMARK    4  A    between atoms: C_7  and  C_8
REMARK    5  A    between atoms: C_15  and  O_16
REMARK    6  A    between atoms: O_16  and  C_17
REMARK                            x       y       z     vdW  Elec       q    Type
REMARK                         _______ _______ _______ _____ _____    ______ ____
ROOT
ATOM      1  C   UNL     1      55.686 -28.843  23.534  0.00  0.00    +0.000 A 
ATOM      2  C   UNL     1      54.942 -27.735  23.163  0.00  0.00    +0.000 A 
ATOM      3  C   UNL     1      53.727 -28.052  22.512  0.00  0.00    +0.000 A 
ATOM      4  C   UNL     1      53.454 -29.222  21.965  0.00  0.00    +0.000 A 
ATOM      5  C   UNL     1      54.267 -30.264  22.319  0.00  0.00    +0.000 A 
ATOM      6  C   UNL     1      55.402 -30.051  23.064  0.00  0.00    +0.000 A 
ENDROOT
BRANCH   1   8
ATOM      7  C   UNL     1      57.245 -27.316  24.668  0.00  0.00    +0.000 C 
ATOM      8  O   UNL     1      56.825 -28.635  24.358  0.00  0.00    +0.000 OA
ENDBRANCH   1   8
BRANCH   3   9
ATOM      9  C   UNL     1      52.663 -26.970  22.434  0.00  0.00    +0.000 C 
ATOM     10  C   UNL     1      52.079 -26.507  23.572  0.00  0.00    +0.000 C 
BRANCH  10  11
ATOM     11  C   UNL     1      51.014 -25.425  23.494  0.00  0.00    +0.000 A 
ATOM     12  C   UNL     1      50.105 -25.363  22.450  0.00  0.00    +0.000 A 
ATOM     13  C   UNL     1      49.333 -24.177  22.432  0.00  0.00    +0.000 A 
ATOM     14  C   UNL     1      49.191 -23.360  23.461  0.00  0.00    +0.000 A 
ATOM     15  C   UNL     1      50.077 -23.517  24.490  0.00  0.00    +0.000 A 
ATOM     16  C   UNL     1      50.951 -24.577  24.514  0.00  0.00    +0.000 A 
ENDBRANCH  10  11
ENDBRANCH   3   9
BRANCH   5  17
ATOM     17  O   UNL     1      53.936 -31.581  21.909  0.00  0.00    +0.000 OA
ATOM     18  C   UNL     1      54.961 -32.546  21.721  0.00  0.00    +0.000 C 
ENDBRANCH   5  17
TORSDOF 4
ENDMDL
MODEL 4
REMARK VINA RESULT:    -4.979      1.820      3.864
REMARK INTER + INTRA:          -6.626
REMARK INTER:                  -6.169
REMARK INTRA:                  -0.457
REMARK UNBOUND:                -0.482
REMARK  Name = 
REMARK  6 active torsions:
REMARK  status: ('A' for Active; 'I' for Inactive)
REMARK    1  A    between atoms: C_1  and  O_2
REMARK    2  A    between atoms: O_2  and  C_3
REMARK    3  A    between atoms: C_5  and  C_6
REMARK    4  A    between atoms: C_7  and  C_8
REMARK    5  A    between atoms: C_15  and  O_16
REMARK    6  A    between atoms: O_16  and  C_17
REMARK                            x       y       z     vdW  Elec       q    Type
REMARK                         _______ _______ _______ _____ _____    ______ ____
ROOT
ATOM      1  C   UNL     1      54.003 -29.365  21.434  0.00  0.00    +0.000 A 
ATOM      2  C   UNL     1      52.824 -28.673  21.661  0.00  0.00    +0.000 A 
ATOM      3  C   UNL     1      52.963 -27.578  22.547  0.00  0.00    +0.000 A 
ATOM      4  C   UNL     1      53.978 -27.410  23.374  0.00  0.00    +0.000 A 
ATOM      5  C   UNL     1      55.089 -28.172  23.138  0.00  0.00    +0.000 A 
ATOM      6  C   UNL     1      55.071 -29.173  22.198  0.00  0.00    +0.000 A 
ENDROOT
BRANCH   1   8
ATOM      7  C   UNL     1      53.057 -30.300  19.366  0.00  0.00    +0.000 C 
ATOM      8  O   UNL     1      54.007 -30.358  20.419  0.00  0.00    +0.000 OA
ENDBRANCH   1   8
BRANCH   3   9
ATOM      9  C   UNL     1      51.868 -26.525  22.548  0.00  0.00    +0.000 C 
ATOM     10  C   UNL     1      51.614 -25.808  23.675  0.00  0.00    +0.000 C 
BRANCH  10  11
ATOM     11  C   UNL     1      50.518 -24.755  23.676  0.00  0.00    +0.000 A 
ATOM     12  C   UNL     1      49.540 -24.712  22.696  0.00  0.00    +0.000 A 
ATOM     13  C   UNL     1      48.737 -23.548  22.737  0.00  0.00    +0.000 A 
ATOM     14  C   UNL     1      48.641 -22.741  23.779  0.00  0.00    +0.000 A 
ATOM     15  C   UNL     1      49.598 -22.879  24.746  0.00  0.00    +0.000 A 
ATOM     16  C   UNL     1      50.500 -23.915  24.704  0.00  0.00    +0.000 A 
ENDBRANCH  10  11
ENDBRANCH   3   9
BRANCH   5  17
ATOM     17  O   UNL     1      56.277 -27.926  23.876  0.00  0.00    +0.000 OA
ATOM     18  C   UNL     1      56.877 -28.972  24.626  0.00  0.00    +0.000 C 
ENDBRANCH   5  17
TORSDOF 4
ENDMDL
MODEL 5
REMARK VINA RESULT:    -4.843      3.355      5.552
REMARK INTER + INTRA:          -6.457
REMARK INTER:                  -5.975
REMARK INTRA:                  -0.482
REMARK UNBOUND:                -0.482
REMARK  Name = 
REMARK  6 active torsions:
REMARK  status: ('A' for Active; 'I' for Inactive)
REMARK    1  A    between atoms: C_1  and  O_2
REMARK    2  A    between atoms: O_2  and  C_3
REMARK    3  A    between atoms: C_5  and  C_6
REMARK    4  A    between atoms: C_7  and  C_8
REMARK    5  A    between atoms: C_15  and  O_16
REMARK    6  A    between atoms: O_16  and  C_17
REMARK                            x       y       z     vdW  Elec       q    Type
REMARK                         _______ _______ _______ _____ _____    ______ ____
ROOT
ATOM      1  C   UNL     1      55.629 -24.834  26.236  0.00  0.00    +0.000 A 
ATOM      2  C   UNL     1      55.660 -25.446  24.993  0.00  0.00    +0.000 A 
ATOM      3  C   UNL     1      55.895 -26.840  25.045  0.00  0.00    +0.000 A 
ATOM      4  C   UNL     1      56.398 -27.476  26.088  0.00  0.00    +0.000 A 
ATOM      5  C   UNL     1      56.401 -26.793  27.273  0.00  0.00    +0.000 A 
ATOM      6  C   UNL     1      56.058 -25.464  27.323  0.00  0.00    +0.000 A 
ENDROOT
BRANCH   1   8
ATOM      7  C   UNL     1      54.902 -22.890  27.555  0.00  0.00    +0.000 C 
ATOM      8  O   UNL     1      55.214 -23.477  26.301  0.00  0.00    +0.000 OA
ENDBRANCH   1   8
BRANCH   3   9
ATOM      9  C   UNL     1      55.547 -27.662  23.816  0.00  0.00    +0.000 C 
ATOM     10  C   UNL     1      54.264 -27.704  23.367  0.00  0.00    +0.000 C 
BRANCH  10  11
ATOM     11  C   UNL     1      53.915 -28.528  22.138  0.00  0.00    +0.000 A 
ATOM     12  C   UNL     1      52.687 -28.419  21.504  0.00  0.00    +0.000 A 
ATOM     13  C   UNL     1      52.463 -29.407  20.516  0.00  0.00    +0.000 A 
ATOM     14  C   UNL     1      53.411 -30.142  19.962  0.00  0.00    +0.000 A 
ATOM     15  C   UNL     1      54.621 -30.153  20.598  0.00  0.00    +0.000 A 
ATOM     16  C   UNL     1      54.872 -29.310  21.654  0.00  0.00    +0.000 A 
ENDBRANCH  10  11
ENDBRANCH   3   9
BRANCH   5  17
ATOM     17  O   UNL     1      56.765 -27.467  28.468  0.00  0.00    +0.000 OA
ATOM     18  C   UNL     1      57.879 -28.349  28.475  0.00  0.00    +0.000 C 
ENDBRANCH   5  17
TORSDOF 4
ENDMDL
