MODEL 1
REMARK VINA RESULT:    -4.796      0.000      0.000
REMARK INTER + INTRA:         -10.275
REMARK INTER:                  -7.309
REMARK INTRA:                  -2.966
REMARK UNBOUND:                -3.095
REMARK  Name = 
REMARK  10 active torsions:
REMARK  status: ('A' for Active; 'I' for Inactive)
REMARK    1  A    between atoms: C_1  and  O_2
REMARK    2  A    between atoms: O_2  and  C_3
REMARK    3  A    between atoms: C_5  and  C_6
REMARK    4  A    between atoms: C_7  and  C_8
REMARK    5  A    between atoms: C_8  and  C_10
REMARK    6  A    between atoms: C_10  and  C_11
REMARK    7  A    between atoms: C_11  and  C_12
REMARK    8  A    between atoms: C_12  and  C_13
REMARK    9  A    between atoms: C_13  and  C_14
REMARK   10  A    between atoms: C_22  and  O_23
REMARK                            x       y       z     vdW  Elec       q    Type
REMARK                         _______ _______ _______ _____ _____    ______ ____
ROOT
ATOM      1  C   UNL     1      54.905 -25.860  25.418  0.00  0.00    +0.000 C 
ATOM      2  C   UNL     1      53.797 -25.890  26.207  0.00  0.00    +0.000 C 
ENDROOT
BRANCH   1   5
ATOM      3  C   UNL     1      57.170 -28.365  27.114  0.00  0.00    +0.000 A 
ATOM      4  C   UNL     1      56.134 -27.491  26.880  0.00  0.00    +0.000 A 
ATOM      5  C   UNL     1      56.040 -26.841  25.664  0.00  0.00    +0.000 A 
ATOM      6  C   UNL     1      56.966 -27.077  24.679  0.00  0.00    +0.000 A 
ATOM      7  C   UNL     1      57.991 -27.973  24.892  0.00  0.00    +0.000 A 
ATOM      8  C   UNL     1      58.117 -28.648  26.109  0.00  0.00    +0.000 A 
BRANCH   3  10
ATOM      9  C   UNL     1      56.476 -28.385  29.395  0.00  0.00    +0.000 C 
ATOM     10  O   UNL     1      57.226 -28.952  28.331  0.00  0.00    +0.000 OA
ENDBRANCH   3  10
BRANCH   8  11
ATOM     11  O   UNL     1      59.162 -29.585  26.326  0.00  0.00    +0.000 OA
ATOM     12  H   UNL     1      59.418 -30.225  25.602  0.00  0.00    +0.000 HD
ENDBRANCH   8  11
ENDBRANCH   1   5
BRANCH   2  13
ATOM     13  C   UNL     1      52.662 -24.909  25.960  0.00  0.00    +0.000 C 
ATOM     14  O   UNL     1      52.848 -23.664  26.138  0.00  0.00    +0.000 OA
BRANCH  13  15
ATOM     15  C   UNL     1      51.305 -25.416  25.501  0.00  0.00    +0.000 C 
BRANCH  15  16
ATOM     16  C   UNL     1      51.286 -25.511  23.984  0.00  0.00    +0.000 C 
BRANCH  16  17
ATOM     17  C   UNL     1      51.445 -26.963  23.564  0.00  0.00    +0.000 C 
BRANCH  17  18
ATOM     18  C   UNL     1      52.614 -27.086  22.600  0.00  0.00    +0.000 C 
BRANCH  18  19
ATOM     19  C   UNL     1      53.472 -28.278  22.992  0.00  0.00    +0.000 A 
ATOM     20  C   UNL     1      53.210 -28.988  24.152  0.00  0.00    +0.000 A 
ATOM     21  C   UNL     1      54.264 -29.845  24.550  0.00  0.00    +0.000 A 
ATOM     22  C   UNL     1      55.247 -30.239  23.762  0.00  0.00    +0.000 A 
ATOM     23  C   UNL     1      55.411 -29.540  22.598  0.00  0.00    +0.000 A 
ATOM     24  C   UNL     1      54.494 -28.596  22.205  0.00  0.00    +0.000 A 
ENDBRANCH  18  19
ENDBRANCH  17  18
ENDBRANCH  16  17
ENDBRANCH  15  16
ENDBRANCH  13  15
ENDBRANCH   2  13
TORSDOF 9
ENDMDL
MODEL 2
REMARK VINA RESULT:    -4.659      3.120      6.710
REMARK INTER + INTRA:         -10.070
REMARK INTER:                  -7.140
REMARK INTRA:                  -2.930
REMARK UNBOUND:                -3.095
REMARK  Name = 
REMARK  10 active torsions:
REMARK  status: ('A' for Active; 'I' for Inactive)
REMARK    1  A    between atoms: C_1  and  O_2
REMARK    2  A    between atoms: O_2  and  C_3
REMARK    3  A    between atoms: C_5  and  C_6
REMARK    4  A    between atoms: C_7  and  C_8
REMARK    5  A    between atoms: C_8  and  C_10
REMARK    6  A    between atoms: C_10  and  C_11
REMARK    7  A    between atoms: C_11  and  C_12
REMARK    8  A    between atoms: C_12  and  C_13
REMARK    9  A    between atoms: C_13  and  C_14
REMARK   10  A    between atoms: C_22  and  O_23
REMARK                            x       y       z     vdW  Elec       q    Type
REMARK                         _______ _______ _______ _____ _____    ______ ____
ROOT
ATOM      1  C   UNL     1      56.393 -31.125  24.262  0.00  0.00    +0.000 C 
ATOM      2  C   UNL     1      57.515 -31.860  24.493  0.00  0.00    +0.000 C 
ENDROOT
BRANCH   1   5
ATOM      3  C   UNL     1      55.430 -27.493  23.866  0.00  0.00    +0.000 A 
ATOM      4  C   UNL     1      55.363 -28.866  23.886  0.00  0.00    +0.000 A 
ATOM      5  C   UNL     1      56.466 -29.607  24.262  0.00  0.00    +0.000 A 
ATOM      6  C   UNL     1      57.629 -28.978  24.634  0.00  0.00    +0.000 A 
ATOM      7  C   UNL     1      57.699 -27.602  24.646  0.00  0.00    +0.000 A 
ATOM      8  C   UNL     1      56.601 -26.821  24.272  0.00  0.00    +0.000 A 
BRANCH   3  10
ATOM      9  C   UNL     1      53.272 -26.629  24.397  0.00  0.00    +0.000 C 
ATOM     10  O   UNL     1      54.327 -26.820  23.465  0.00  0.00    +0.000 OA
ENDBRANCH   3  10
BRANCH   8  11
ATOM     11  O   UNL     1      56.663 -25.403  24.301  0.00  0.00    +0.000 OA
ATOM     12  H   UNL     1      56.063 -24.888  24.912  0.00  0.00    +0.000 HD
ENDBRANCH   8  11
ENDBRANCH   1   5
BRANCH   2  13
ATOM     13  C   UNL     1      57.442 -33.378  24.494  0.00  0.00    +0.000 C 
ATOM     14  O   UNL     1      57.115 -34.000  23.434  0.00  0.00    +0.000 OA
BRANCH  13  15
ATOM     15  C   UNL     1      57.759 -34.154  25.762  0.00  0.00    +0.000 C 
BRANCH  15  16
ATOM     16  C   UNL     1      56.574 -34.079  26.711  0.00  0.00    +0.000 C 
BRANCH  16  17
ATOM     17  C   UNL     1      56.864 -33.064  27.806  0.00  0.00    +0.000 C 
BRANCH  17  18
ATOM     18  C   UNL     1      55.739 -32.043  27.860  0.00  0.00    +0.000 C 
BRANCH  18  19
ATOM     19  C   UNL     1      56.326 -30.642  27.893  0.00  0.00    +0.000 A 
ATOM     20  C   UNL     1      57.688 -30.448  28.056  0.00  0.00    +0.000 A 
ATOM     21  C   UNL     1      58.042 -29.120  28.391  0.00  0.00    +0.000 A 
ATOM     22  C   UNL     1      57.259 -28.071  28.222  0.00  0.00    +0.000 A 
ATOM     23  C   UNL     1      55.935 -28.330  27.996  0.00  0.00    +0.000 A 
ATOM     24  C   UNL     1      55.492 -29.614  27.790  0.00  0.00    +0.000 A 
ENDBRANCH  18  19
ENDBRANCH  17  18
ENDBRANCH  16  17
ENDBRANCH  15  16
ENDBRANCH  13  15
ENDBRANCH   2  13
TORSDOF 9
ENDMDL
MODEL 3
REMARK VINA RESULT:    -4.614      2.199      3.508
REMARK INTER + INTRA:         -10.002
REMARK INTER:                  -7.208
REMARK INTRA:                  -2.794
REMARK UNBOUND:                -3.095
REMARK  Name = 
REMARK  10 active torsions:
REMARK  status: ('A' for Active; 'I' for Inactive)
REMARK    1  A    between atoms: C_1  and  O_2
REMARK    2  A    between atoms: O_2  and  C_3
REMARK    3  A    between atoms: C_5  and  C_6
REMARK    4  A    between atoms: C_7  and  C_8
REMARK    5  A    between atoms: C_8  and  C_10
REMARK    6  A    between atoms: C_10  and  C_11
REMARK    7  A    between atoms: C_11  and  C_12
REMARK    8  A    between atoms: C_12  and  C_13
REMARK    9  A    between atoms: C_13  and  C_14
REMARK   10  A    between atoms: C_22  and  O_23
REMARK                            x       y       z     vdW  Elec       q    Type
REMARK                         _______ _______ _______ _____ _____    ______ ____
ROOT
ATOM      1  C   UNL     1      54.813 -28.180  27.569  0.00  0.00    +0.000 C 
ATOM      2  C   UNL     1      54.810 -26.861  27.904  0.00  0.00    +0.000 C 
ENDROOT
BRANCH   1   5
ATOM      3  C   UNL     1      56.838 -31.282  28.315  0.00  0.00    +0.000 A 
ATOM      4  C   UNL     1      55.857 -30.449  27.831  0.00  0.00    +0.000 A 
ATOM      5  C   UNL     1      55.911 -29.093  28.089  0.00  0.00    +0.000 A 
ATOM      6  C   UNL     1      56.953 -28.567  28.812  0.00  0.00    +0.000 A 
ATOM      7  C   UNL     1      57.957 -29.387  29.278  0.00  0.00    +0.000 A 
ATOM      8  C   UNL     1      57.935 -30.764  29.035  0.00  0.00    +0.000 A 
BRANCH   3  10
ATOM      9  C   UNL     1      57.189 -33.093  26.805  0.00  0.00    +0.000 C 
ATOM     10  O   UNL     1      56.720 -32.603  28.053  0.00  0.00    +0.000 OA
ENDBRANCH   3  10
BRANCH   8  11
ATOM     11  O   UNL     1      58.977 -31.610  29.497  0.00  0.00    +0.000 OA
ATOM     12  H   UNL     1      59.895 -31.240  29.640  0.00  0.00    +0.000 HD
ENDBRANCH   8  11
ENDBRANCH   1   5
BRANCH   2  13
ATOM     13  C   UNL     1      53.712 -25.948  27.384  0.00  0.00    +0.000 C 
ATOM     14  O   UNL     1      52.645 -25.789  28.058  0.00  0.00    +0.000 OA
BRANCH  13  15
ATOM     15  C   UNL     1      53.888 -25.224  26.059  0.00  0.00    +0.000 C 
BRANCH  15  16
ATOM     16  C   UNL     1      55.317 -24.719  25.944  0.00  0.00    +0.000 C 
BRANCH  16  17
ATOM     17  C   UNL     1      55.939 -25.246  24.660  0.00  0.00    +0.000 C 
BRANCH  17  18
ATOM     18  C   UNL     1      55.143 -26.444  24.167  0.00  0.00    +0.000 C 
BRANCH  18  19
ATOM     19  C   UNL     1      56.006 -27.693  24.246  0.00  0.00    +0.000 A 
ATOM     20  C   UNL     1      55.537 -28.908  23.776  0.00  0.00    +0.000 A 
ATOM     21  C   UNL     1      56.299 -30.022  24.205  0.00  0.00    +0.000 A 
ATOM     22  C   UNL     1      57.525 -29.948  24.688  0.00  0.00    +0.000 A 
ATOM     23  C   UNL     1      57.955 -28.707  25.071  0.00  0.00    +0.000 A 
ATOM     24  C   UNL     1      57.206 -27.587  24.805  0.00  0.00    +0.000 A 
ENDBRANCH  18  19
ENDBRANCH  17  18
ENDBRANCH  16  17
ENDBRANCH  15  16
ENDBRANCH  13  15
ENDBRANCH   2  13
TORSDOF 9
ENDMDL
MODEL 4
REMARK VINA RESULT:    -4.570      2.993      5.445
REMARK INTER + INTRA:          -9.936
REMARK INTER:                  -7.597
REMARK INTRA:                  -2.339
REMARK UNBOUND:                -3.095
REMARK  Name = 
REMARK  10 active torsions:
REMARK  status: ('A' for Active; 'I' for Inactive)
REMARK    1  A    between atoms: C_1  and  O_2
REMARK    2  A    between atoms: O_2  and  C_3
REMARK    3  A    between atoms: C_5  and  C_6
REMARK    4  A    between atoms: C_7  and  C_8
REMARK    5  A    between atoms: C_8  and  C_10
REMARK    6  A    between atoms: C_10  and  C_11
REMARK    7  A    between atoms: C_11  and  C_12
REMARK    8  A    between atoms: C_12  and  C_13
REMARK    9  A    between atoms: C_13  and  C_14
REMARK   10  A    between atoms: C_22  and  O_23
REMARK                            x       y       z     vdW  Elec       q    Type
REMARK                         _______ _______ _______ _____ _____    ______ ____
ROOT
ATOM      1  C   UNL     1      52.350 -25.261  27.027  0.00  0.00    +0.000 C 
ATOM      2  C   UNL     1      52.277 -24.482  28.140  0.00  0.00    +0.000 C 
ENDROOT
BRANCH   1   5
ATOM      3  C   UNL     1      54.929 -26.264  24.454  0.00  0.00    +0.000 A 
ATOM      4  C   UNL     1      53.767 -26.217  25.187  0.00  0.00    +0.000 A 
ATOM      5  C   UNL     1      53.628 -25.294  26.205  0.00  0.00    +0.000 A 
ATOM      6  C   UNL     1      54.640 -24.407  26.479  0.00  0.00    +0.000 A 
ATOM      7  C   UNL     1      55.798 -24.425  25.732  0.00  0.00    +0.000 A 
ATOM      8  C   UNL     1      55.972 -25.345  24.693  0.00  0.00    +0.000 A 
BRANCH   3  10
ATOM      9  C   UNL     1      53.820 -27.715  22.922  0.00  0.00    +0.000 C 
ATOM     10  O   UNL     1      55.019 -27.204  23.486  0.00  0.00    +0.000 OA
ENDBRANCH   3  10
BRANCH   8  11
ATOM     11  O   UNL     1      57.155 -25.355  23.910  0.00  0.00    +0.000 OA
ATOM     12  H   UNL     1      57.552 -26.223  23.613  0.00  0.00    +0.000 HD
ENDBRANCH   8  11
ENDBRANCH   1   5
BRANCH   2  13
ATOM     13  C   UNL     1      50.998 -24.449  28.961  0.00  0.00    +0.000 C 
ATOM     14  O   UNL     1      50.605 -23.358  29.483  0.00  0.00    +0.000 OA
BRANCH  13  15
ATOM     15  C   UNL     1      50.189 -25.720  29.160  0.00  0.00    +0.000 C 
BRANCH  15  16
ATOM     16  C   UNL     1      48.722 -25.364  29.340  0.00  0.00    +0.000 C 
BRANCH  16  17
ATOM     17  C   UNL     1      47.963 -25.675  28.060  0.00  0.00    +0.000 C 
BRANCH  17  18
ATOM     18  C   UNL     1      47.793 -24.399  27.250  0.00  0.00    +0.000 C 
BRANCH  18  19
ATOM     19  C   UNL     1      48.676 -24.461  26.015  0.00  0.00    +0.000 A 
ATOM     20  C   UNL     1      48.865 -25.654  25.337  0.00  0.00    +0.000 A 
ATOM     21  C   UNL     1      49.946 -25.631  24.424  0.00  0.00    +0.000 A 
ATOM     22  C   UNL     1      50.511 -24.532  23.961  0.00  0.00    +0.000 A 
ATOM     23  C   UNL     1      50.230 -23.374  24.633  0.00  0.00    +0.000 A 
ATOM     24  C   UNL     1      49.281 -23.345  25.625  0.00  0.00    +0.000 A 
ENDBRANCH  18  19
ENDBRANCH  17  18
ENDBRANCH  16  17
ENDBRANCH  15  16
ENDBRANCH  13  15
ENDBRANCH   2  13
TORSDOF 9
ENDMDL
MODEL 5
REMARK VINA RESULT:    -4.498      1.838      3.619
REMARK INTER + INTRA:          -9.828
REMARK INTER:                  -6.733
REMARK INTRA:                  -3.095
REMARK UNBOUND:                -3.095
REMARK  Name = 
REMARK  10 active torsions:
REMARK  status: ('A' for Active; 'I' for Inactive)
REMARK    1  A    between atoms: C_1  and  O_2
REMARK    2  A    between atoms: O_2  and  C_3
REMARK    3  A    between atoms: C_5  and  C_6
REMARK    4  A    between atoms: C_7  and  C_8
REMARK    5  A    between atoms: C_8  and  C_10
REMARK    6  A    between atoms: C_10  and  C_11
REMARK    7  A    between atoms: C_11  and  C_12
REMARK    8  A    between atoms: C_12  and  C_13
REMARK    9  A    between atoms: C_13  and  C_14
REMARK   10  A    between atoms: C_22  and  O_23
REMARK                            x       y       z     vdW  Elec       q    Type
REMARK                         _______ _______ _______ _____ _____    ______ ____
ROOT
ATOM      1  C   UNL     1      54.580 -27.083  23.887  0.00  0.00    +0.000 C 
ATOM      2  C   UNL     1      53.332 -27.578  24.109  0.00  0.00    +0.000 C 
ENDROOT
BRANCH   1   5
ATOM      3  C   UNL     1      56.702 -29.447  25.932  0.00  0.00    +0.000 A 
ATOM      4  C   UNL     1      55.621 -28.876  25.304  0.00  0.00    +0.000 A 
ATOM      5  C   UNL     1      55.782 -27.722  24.562  0.00  0.00    +0.000 A 
ATOM      6  C   UNL     1      57.024 -27.150  24.431  0.00  0.00    +0.000 A 
ATOM      7  C   UNL     1      58.120 -27.730  25.032  0.00  0.00    +0.000 A 
ATOM      8  C   UNL     1      57.994 -28.898  25.790  0.00  0.00    +0.000 A 
BRANCH   3  10
ATOM      9  C   UNL     1      56.141 -30.415  28.038  0.00  0.00    +0.000 C 
ATOM     10  O   UNL     1      56.481 -30.561  26.666  0.00  0.00    +0.000 OA
ENDBRANCH   3  10
BRANCH   8  11
ATOM     11  O   UNL     1      59.123 -29.508  26.396  0.00  0.00    +0.000 OA
ATOM     12  H   UNL     1      60.006 -29.503  25.927  0.00  0.00    +0.000 HD
ENDBRANCH   8  11
ENDBRANCH   1   5
BRANCH   2  13
ATOM     13  C   UNL     1      52.130 -26.939  23.434  0.00  0.00    +0.000 C 
ATOM     14  O   UNL     1      52.061 -26.895  22.165  0.00  0.00    +0.000 OA
BRANCH  13  15
ATOM     15  C   UNL     1      51.009 -26.351  24.275  0.00  0.00    +0.000 C 
BRANCH  15  16
ATOM     16  C   UNL     1      51.328 -24.901  24.602  0.00  0.00    +0.000 C 
BRANCH  16  17
ATOM     17  C   UNL     1      51.798 -24.798  26.044  0.00  0.00    +0.000 C 
BRANCH  17  18
ATOM     18  C   UNL     1      53.199 -24.210  26.078  0.00  0.00    +0.000 C 
BRANCH  18  19
ATOM     19  C   UNL     1      54.087 -25.067  26.965  0.00  0.00    +0.000 A 
ATOM     20  C   UNL     1      55.428 -24.762  27.132  0.00  0.00    +0.000 A 
ATOM     21  C   UNL     1      56.187 -25.809  27.706  0.00  0.00    +0.000 A 
ATOM     22  C   UNL     1      55.674 -26.834  28.362  0.00  0.00    +0.000 A 
ATOM     23  C   UNL     1      54.331 -27.042  28.210  0.00  0.00    +0.000 A 
ATOM     24  C   UNL     1      53.545 -26.130  27.550  0.00  0.00    +0.000 A 
ENDBRANCH  18  19
ENDBRANCH  17  18
ENDBRANCH  16  17
ENDBRANCH  15  16
ENDBRANCH  13  15
ENDBRANCH   2  13
TORSDOF 9
ENDMDL
