MODEL 1
REMARK VINA RESULT:    -5.698      0.000      0.000
REMARK INTER + INTRA:          -8.087
REMARK INTER:                  -7.248
REMARK INTRA:                  -0.839
REMARK UNBOUND:                -0.724
REMARK  Name = 
REMARK  7 active torsions:
REMARK  status: ('A' for Active; 'I' for Inactive)
REMARK    1  A    between atoms: C_1  and  O_2
REMARK    2  A    between atoms: O_2  and  C_3
REMARK    3  A    between atoms: C_6  and  C_7
REMARK    4  A    between atoms: C_7  and  C_9
REMARK    5  A    between atoms: C_10  and  C_11
REMARK    6  A    between atoms: C_14  and  O_15
REMARK    7  A    between atoms: C_18  and  O_19
REMARK                            x       y       z     vdW  Elec       q    Type
REMARK                         _______ _______ _______ _____ _____    ______ ____
ROOT
ATOM      1  C   UNL     1      56.240 -26.976  24.624  0.00  0.00    +0.000 C 
ATOM      2  O   UNL     1      56.700 -25.792  24.633  0.00  0.00    +0.000 OA
ENDROOT
BRANCH   1   6
ATOM      3  C   UNL     1      57.586 -29.793  27.556  0.00  0.00    +0.000 A 
ATOM      4  C   UNL     1      56.266 -29.411  27.518  0.00  0.00    +0.000 A 
ATOM      5  C   UNL     1      55.836 -28.500  26.572  0.00  0.00    +0.000 A 
ATOM      6  C   UNL     1      56.720 -27.986  25.654  0.00  0.00    +0.000 A 
ATOM      7  C   UNL     1      58.038 -28.384  25.663  0.00  0.00    +0.000 A 
ATOM      8  C   UNL     1      58.507 -29.304  26.607  0.00  0.00    +0.000 A 
BRANCH   3  10
ATOM      9  C   UNL     1      56.977 -31.478  29.158  0.00  0.00    +0.000 C 
ATOM     10  O   UNL     1      57.954 -30.666  28.521  0.00  0.00    +0.000 OA
ENDBRANCH   3  10
BRANCH   7  11
ATOM     11  O   UNL     1      58.935 -27.853  24.700  0.00  0.00    +0.000 OA
ATOM     12  H   UNL     1      59.825 -28.284  24.553  0.00  0.00    +0.000 HD
ENDBRANCH   7  11
ENDBRANCH   1   6
BRANCH   1  13
ATOM     13  C   UNL     1      55.210 -27.384  23.583  0.00  0.00    +0.000 C 
ATOM     14  C   UNL     1      55.390 -28.520  22.856  0.00  0.00    +0.000 C 
BRANCH  14  15
ATOM     15  C   UNL     1      54.360 -28.928  21.816  0.00  0.00    +0.000 A 
ATOM     16  C   UNL     1      54.685 -29.828  20.824  0.00  0.00    +0.000 A 
ATOM     17  C   UNL     1      53.732 -30.249  19.891  0.00  0.00    +0.000 A 
ATOM     18  C   UNL     1      52.425 -29.733  20.015  0.00  0.00    +0.000 A 
ATOM     19  C   UNL     1      52.121 -28.813  20.991  0.00  0.00    +0.000 A 
ATOM     20  C   UNL     1      53.087 -28.419  21.897  0.00  0.00    +0.000 A 
BRANCH  18  21
ATOM     21  O   UNL     1      51.432 -30.101  19.173  0.00  0.00    +0.000 OA
ATOM     22  H   UNL     1      51.029 -29.429  18.552  0.00  0.00    +0.000 HD
ENDBRANCH  18  21
ENDBRANCH  14  15
ENDBRANCH   1  13
TORSDOF 6
ENDMDL
MODEL 2
REMARK VINA RESULT:    -5.669     11.804     14.660
REMARK INTER + INTRA:          -8.050
REMARK INTER:                  -7.333
REMARK INTRA:                  -0.717
REMARK UNBOUND:                -0.724
REMARK  Name = 
REMARK  7 active torsions:
REMARK  status: ('A' for Active; 'I' for Inactive)
REMARK    1  A    between atoms: C_1  and  O_2
REMARK    2  A    between atoms: O_2  and  C_3
REMARK    3  A    between atoms: C_6  and  C_7
REMARK    4  A    between atoms: C_7  and  C_9
REMARK    5  A    between atoms: C_10  and  C_11
REMARK    6  A    between atoms: C_14  and  O_15
REMARK    7  A    between atoms: C_18  and  O_19
REMARK                            x       y       z     vdW  Elec       q    Type
REMARK                         _______ _______ _______ _____ _____    ______ ____
ROOT
ATOM      1  C   UNL     1      52.367 -30.375   9.659  0.00  0.00    +0.000 C 
ATOM      2  O   UNL     1      51.629 -30.746   8.693  0.00  0.00    +0.000 OA
ENDROOT
BRANCH   1   6
ATOM      3  C   UNL     1      51.549 -31.790  13.617  0.00  0.00    +0.000 A 
ATOM      4  C   UNL     1      52.765 -32.043  13.029  0.00  0.00    +0.000 A 
ATOM      5  C   UNL     1      53.025 -31.586  11.751  0.00  0.00    +0.000 A 
ATOM      6  C   UNL     1      52.077 -30.863  11.068  0.00  0.00    +0.000 A 
ATOM      7  C   UNL     1      50.866 -30.577  11.658  0.00  0.00    +0.000 A 
ATOM      8  C   UNL     1      50.570 -31.024  12.951  0.00  0.00    +0.000 A 
BRANCH   3  10
ATOM      9  C   UNL     1      50.940 -33.635  15.030  0.00  0.00    +0.000 C 
ATOM     10  O   UNL     1      51.342 -32.284  14.859  0.00  0.00    +0.000 OA
ENDBRANCH   3  10
BRANCH   7  11
ATOM     11  O   UNL     1      49.902 -29.818  10.944  0.00  0.00    +0.000 OA
ATOM     12  H   UNL     1      49.246 -29.249  11.439  0.00  0.00    +0.000 HD
ENDBRANCH   7  11
ENDBRANCH   1   6
BRANCH   1  13
ATOM     13  C   UNL     1      53.540 -29.443   9.404  0.00  0.00    +0.000 C 
ATOM     14  C   UNL     1      53.347 -28.096   9.387  0.00  0.00    +0.000 C 
BRANCH  14  15
ATOM     15  C   UNL     1      54.519 -27.163   9.133  0.00  0.00    +0.000 A 
ATOM     16  C   UNL     1      55.051 -27.034   7.869  0.00  0.00    +0.000 A 
ATOM     17  C   UNL     1      56.098 -26.142   7.614  0.00  0.00    +0.000 A 
ATOM     18  C   UNL     1      56.574 -25.369   8.693  0.00  0.00    +0.000 A 
ATOM     19  C   UNL     1      56.055 -25.528   9.956  0.00  0.00    +0.000 A 
ATOM     20  C   UNL     1      55.021 -26.418  10.173  0.00  0.00    +0.000 A 
BRANCH  18  21
ATOM     21  O   UNL     1      57.567 -24.463   8.535  0.00  0.00    +0.000 OA
ATOM     22  H   UNL     1      58.499 -24.772   8.346  0.00  0.00    +0.000 HD
ENDBRANCH  18  21
ENDBRANCH  14  15
ENDBRANCH   1  13
TORSDOF 6
ENDMDL
MODEL 3
REMARK VINA RESULT:    -5.434      2.188      3.618
REMARK INTER + INTRA:          -7.746
REMARK INTER:                  -6.948
REMARK INTRA:                  -0.798
REMARK UNBOUND:                -0.724
REMARK  Name = 
REMARK  7 active torsions:
REMARK  status: ('A' for Active; 'I' for Inactive)
REMARK    1  A    between atoms: C_1  and  O_2
REMARK    2  A    between atoms: O_2  and  C_3
REMARK    3  A    between atoms: C_6  and  C_7
REMARK    4  A    between atoms: C_7  and  C_9
REMARK    5  A    between atoms: C_10  and  C_11
REMARK    6  A    between atoms: C_14  and  O_15
REMARK    7  A    between atoms: C_18  and  O_19
REMARK                            x       y       z     vdW  Elec       q    Type
REMARK                         _______ _______ _______ _____ _____    ______ ____
ROOT
ATOM      1  C   UNL     1      56.641 -28.036  24.456  0.00  0.00    +0.000 C 
ATOM      2  O   UNL     1      57.850 -28.364  24.666  0.00  0.00    +0.000 OA
ENDROOT
BRANCH   1   6
ATOM      3  C   UNL     1      54.812 -24.889  26.714  0.00  0.00    +0.000 A 
ATOM      4  C   UNL     1      54.501 -26.202  26.979  0.00  0.00    +0.000 A 
ATOM      5  C   UNL     1      55.092 -27.214  26.247  0.00  0.00    +0.000 A 
ATOM      6  C   UNL     1      56.005 -26.916  25.264  0.00  0.00    +0.000 A 
ATOM      7  C   UNL     1      56.347 -25.607  25.010  0.00  0.00    +0.000 A 
ATOM      8  C   UNL     1      55.768 -24.557  25.732  0.00  0.00    +0.000 A 
BRANCH   3  10
ATOM      9  C   UNL     1      53.841 -24.195  28.799  0.00  0.00    +0.000 C 
ATOM     10  O   UNL     1      54.183 -23.941  27.444  0.00  0.00    +0.000 OA
ENDBRANCH   3  10
BRANCH   7  11
ATOM     11  O   UNL     1      57.301 -25.316  24.000  0.00  0.00    +0.000 OA
ATOM     12  H   UNL     1      57.026 -24.811  23.182  0.00  0.00    +0.000 HD
ENDBRANCH   7  11
ENDBRANCH   1   6
BRANCH   1  13
ATOM     13  C   UNL     1      55.829 -28.764  23.398  0.00  0.00    +0.000 C 
ATOM     14  C   UNL     1      54.793 -28.134  22.782  0.00  0.00    +0.000 C 
BRANCH  14  15
ATOM     15  C   UNL     1      53.981 -28.862  21.723  0.00  0.00    +0.000 A 
ATOM     16  C   UNL     1      52.642 -28.584  21.552  0.00  0.00    +0.000 A 
ATOM     17  C   UNL     1      51.897 -29.211  20.549  0.00  0.00    +0.000 A 
ATOM     18  C   UNL     1      52.570 -30.123  19.710  0.00  0.00    +0.000 A 
ATOM     19  C   UNL     1      53.899 -30.414  19.909  0.00  0.00    +0.000 A 
ATOM     20  C   UNL     1      54.606 -29.776  20.909  0.00  0.00    +0.000 A 
BRANCH  18  21
ATOM     21  O   UNL     1      51.937 -30.759  18.698  0.00  0.00    +0.000 OA
ATOM     22  H   UNL     1      50.937 -30.800  18.681  0.00  0.00    +0.000 HD
ENDBRANCH  18  21
ENDBRANCH  14  15
ENDBRANCH   1  13
TORSDOF 6
ENDMDL
MODEL 4
REMARK VINA RESULT:    -5.417      3.573      4.630
REMARK INTER + INTRA:          -7.724
REMARK INTER:                  -6.987
REMARK INTRA:                  -0.737
REMARK UNBOUND:                -0.724
REMARK  Name = 
REMARK  7 active torsions:
REMARK  status: ('A' for Active; 'I' for Inactive)
REMARK    1  A    between atoms: C_1  and  O_2
REMARK    2  A    between atoms: O_2  and  C_3
REMARK    3  A    between atoms: C_6  and  C_7
REMARK    4  A    between atoms: C_7  and  C_9
REMARK    5  A    between atoms: C_10  and  C_11
REMARK    6  A    between atoms: C_14  and  O_15
REMARK    7  A    between atoms: C_18  and  O_19
REMARK                            x       y       z     vdW  Elec       q    Type
REMARK                         _______ _______ _______ _____ _____    ______ ____
ROOT
ATOM      1  C   UNL     1      54.803 -28.394  22.543  0.00  0.00    +0.000 C 
ATOM      2  O   UNL     1      54.765 -29.105  21.491  0.00  0.00    +0.000 OA
ENDROOT
BRANCH   1   6
ATOM      3  C   UNL     1      57.721 -29.216  25.568  0.00  0.00    +0.000 A 
ATOM      4  C   UNL     1      57.419 -27.918  25.232  0.00  0.00    +0.000 A 
ATOM      5  C   UNL     1      56.478 -27.657  24.254  0.00  0.00    +0.000 A 
ATOM      6  C   UNL     1      55.827 -28.691  23.625  0.00  0.00    +0.000 A 
ATOM      7  C   UNL     1      56.100 -29.995  23.974  0.00  0.00    +0.000 A 
ATOM      8  C   UNL     1      57.047 -30.295  24.960  0.00  0.00    +0.000 A 
BRANCH   3  10
ATOM      9  C   UNL     1      58.419 -29.038  27.860  0.00  0.00    +0.000 C 
ATOM     10  O   UNL     1      58.669 -29.411  26.512  0.00  0.00    +0.000 OA
ENDBRANCH   3  10
BRANCH   7  11
ATOM     11  O   UNL     1      55.411 -31.051  23.323  0.00  0.00    +0.000 OA
ATOM     12  H   UNL     1      55.236 -31.908  23.807  0.00  0.00    +0.000 HD
ENDBRANCH   7  11
ENDBRANCH   1   6
BRANCH   1  13
ATOM     13  C   UNL     1      53.823 -27.246  22.720  0.00  0.00    +0.000 C 
ATOM     14  C   UNL     1      52.888 -27.296  23.707  0.00  0.00    +0.000 C 
BRANCH  14  15
ATOM     15  C   UNL     1      51.908 -26.148  23.884  0.00  0.00    +0.000 A 
ATOM     16  C   UNL     1      51.986 -25.324  24.986  0.00  0.00    +0.000 A 
ATOM     17  C   UNL     1      51.122 -24.235  25.136  0.00  0.00    +0.000 A 
ATOM     18  C   UNL     1      50.182 -24.001  24.111  0.00  0.00    +0.000 A 
ATOM     19  C   UNL     1      50.094 -24.848  23.030  0.00  0.00    +0.000 A 
ATOM     20  C   UNL     1      50.964 -25.914  22.913  0.00  0.00    +0.000 A 
BRANCH  18  21
ATOM     21  O   UNL     1      49.322 -22.958  24.158  0.00  0.00    +0.000 OA
ATOM     22  H   UNL     1      49.666 -22.023  24.071  0.00  0.00    +0.000 HD
ENDBRANCH  18  21
ENDBRANCH  14  15
ENDBRANCH   1  13
TORSDOF 6
ENDMDL
MODEL 5
REMARK VINA RESULT:    -5.250      3.204      4.375
REMARK INTER + INTRA:          -7.508
REMARK INTER:                  -6.784
REMARK INTRA:                  -0.724
REMARK UNBOUND:                -0.724
REMARK  Name = 
REMARK  7 active torsions:
REMARK  status: ('A' for Active; 'I' for Inactive)
REMARK    1  A    between atoms: C_1  and  O_2
REMARK    2  A    between atoms: O_2  and  C_3
REMARK    3  A    between atoms: C_6  and  C_7
REMARK    4  A    between atoms: C_7  and  C_9
REMARK    5  A    between atoms: C_10  and  C_11
REMARK    6  A    between atoms: C_14  and  O_15
REMARK    7  A    between atoms: C_18  and  O_19
REMARK                            x       y       z     vdW  Elec       q    Type
REMARK                         _______ _______ _______ _____ _____    ______ ____
ROOT
ATOM      1  C   UNL     1      55.764 -28.074  24.329  0.00  0.00    +0.000 C 
ATOM      2  O   UNL     1      55.935 -28.556  23.166  0.00  0.00    +0.000 OA
ENDROOT
BRANCH   1   6
ATOM      3  C   UNL     1      57.774 -29.772  27.708  0.00  0.00    +0.000 A 
ATOM      4  C   UNL     1      56.414 -29.914  27.568  0.00  0.00    +0.000 A 
ATOM      5  C   UNL     1      55.769 -29.364  26.478  0.00  0.00    +0.000 A 
ATOM      6  C   UNL     1      56.484 -28.687  25.519  0.00  0.00    +0.000 A 
ATOM      7  C   UNL     1      57.850 -28.563  25.633  0.00  0.00    +0.000 A 
ATOM      8  C   UNL     1      58.535 -29.108  26.724  0.00  0.00    +0.000 A 
BRANCH   3  10
ATOM      9  C   UNL     1      57.792 -31.472  29.406  0.00  0.00    +0.000 C 
ATOM     10  O   UNL     1      58.347 -30.309  28.809  0.00  0.00    +0.000 OA
ENDBRANCH   3  10
BRANCH   7  11
ATOM     11  O   UNL     1      58.576 -27.871  24.628  0.00  0.00    +0.000 OA
ATOM     12  H   UNL     1      58.249 -26.988  24.292  0.00  0.00    +0.000 HD
ENDBRANCH   7  11
ENDBRANCH   1   6
BRANCH   1  13
ATOM     13  C   UNL     1      54.837 -26.887  24.531  0.00  0.00    +0.000 C 
ATOM     14  C   UNL     1      53.492 -27.077  24.599  0.00  0.00    +0.000 C 
BRANCH  14  15
ATOM     15  C   UNL     1      52.565 -25.889  24.802  0.00  0.00    +0.000 A 
ATOM     16  C   UNL     1      51.450 -25.727  24.009  0.00  0.00    +0.000 A 
ATOM     17  C   UNL     1      50.564 -24.666  24.218  0.00  0.00    +0.000 A 
ATOM     18  C   UNL     1      50.844 -23.781  25.280  0.00  0.00    +0.000 A 
ATOM     19  C   UNL     1      51.976 -23.936  26.046  0.00  0.00    +0.000 A 
ATOM     20  C   UNL     1      52.830 -24.996  25.812  0.00  0.00    +0.000 A 
BRANCH  18  21
ATOM     21  O   UNL     1      50.030 -22.741  25.573  0.00  0.00    +0.000 OA
ATOM     22  H   UNL     1      50.151 -22.238  26.429  0.00  0.00    +0.000 HD
ENDBRANCH  18  21
ENDBRANCH  14  15
ENDBRANCH   1  13
TORSDOF 6
ENDMDL
