MODEL 1
REMARK VINA RESULT:    -5.698      0.000      0.000
REMARK INTER + INTRA:          -7.886
REMARK INTER:                  -7.170
REMARK INTRA:                  -0.716
REMARK UNBOUND:                -0.688
REMARK  Name = 
REMARK  6 active torsions:
REMARK  status: ('A' for Active; 'I' for Inactive)
REMARK    1  A    between atoms: C_1  and  O_2
REMARK    2  A    between atoms: O_2  and  C_3
REMARK    3  A    between atoms: C_6  and  C_7
REMARK    4  A    between atoms: C_7  and  C_9
REMARK    5  A    between atoms: C_10  and  C_11
REMARK    6  A    between atoms: C_17  and  O_18
REMARK                            x       y       z     vdW  Elec       q    Type
REMARK                         _______ _______ _______ _____ _____    ______ ____
ROOT
ATOM      1  C   UNL     1      57.743 -28.935  25.491  0.00  0.00    +0.000 A 
ATOM      2  C   UNL     1      57.392 -27.669  25.085  0.00  0.00    +0.000 A 
ATOM      3  C   UNL     1      56.425 -27.497  24.113  0.00  0.00    +0.000 A 
ATOM      4  C   UNL     1      55.797 -28.587  23.560  0.00  0.00    +0.000 A 
ATOM      5  C   UNL     1      56.119 -29.859  23.981  0.00  0.00    +0.000 A 
ATOM      6  C   UNL     1      57.093 -30.069  24.963  0.00  0.00    +0.000 A 
ENDROOT
BRANCH   1   8
ATOM      7  C   UNL     1      58.370 -29.188  27.796  0.00  0.00    +0.000 C 
ATOM      8  O   UNL     1      58.715 -29.043  26.426  0.00  0.00    +0.000 OA
ENDBRANCH   1   8
BRANCH   4   9
ATOM      9  C   UNL     1      54.743 -28.389  22.483  0.00  0.00    +0.000 C 
ATOM     10  O   UNL     1      54.737 -29.134  21.454  0.00  0.00    +0.000 OA
BRANCH   9  11
ATOM     11  C   UNL     1      53.694 -27.300  22.639  0.00  0.00    +0.000 C 
ATOM     12  C   UNL     1      52.939 -27.238  23.770  0.00  0.00    +0.000 C 
BRANCH  12  13
ATOM     13  C   UNL     1      51.892 -26.148  23.925  0.00  0.00    +0.000 A 
ATOM     14  C   UNL     1      50.940 -26.033  22.926  0.00  0.00    +0.000 A 
ATOM     15  C   UNL     1      50.178 -24.842  22.993  0.00  0.00    +0.000 A 
ATOM     16  C   UNL     1      50.085 -24.072  24.062  0.00  0.00    +0.000 A 
ATOM     17  C   UNL     1      51.014 -24.280  25.045  0.00  0.00    +0.000 A 
ATOM     18  C   UNL     1      51.880 -25.346  24.984  0.00  0.00    +0.000 A 
ENDBRANCH  12  13
ENDBRANCH   9  11
ENDBRANCH   4   9
BRANCH   5  19
ATOM     19  O   UNL     1      55.452 -30.974  23.409  0.00  0.00    +0.000 OA
ATOM     20  H   UNL     1      55.377 -31.829  23.921  0.00  0.00    +0.000 HD
ENDBRANCH   5  19
TORSDOF 5
ENDMDL
MODEL 2
REMARK VINA RESULT:    -5.697      3.192      4.276
REMARK INTER + INTRA:          -7.884
REMARK INTER:                  -7.044
REMARK INTRA:                  -0.840
REMARK UNBOUND:                -0.688
REMARK  Name = 
REMARK  6 active torsions:
REMARK  status: ('A' for Active; 'I' for Inactive)
REMARK    1  A    between atoms: C_1  and  O_2
REMARK    2  A    between atoms: O_2  and  C_3
REMARK    3  A    between atoms: C_6  and  C_7
REMARK    4  A    between atoms: C_7  and  C_9
REMARK    5  A    between atoms: C_10  and  C_11
REMARK    6  A    between atoms: C_17  and  O_18
REMARK                            x       y       z     vdW  Elec       q    Type
REMARK                         _______ _______ _______ _____ _____    ______ ____
ROOT
ATOM      1  C   UNL     1      57.530 -29.697  27.583  0.00  0.00    +0.000 A 
ATOM      2  C   UNL     1      56.224 -29.272  27.548  0.00  0.00    +0.000 A 
ATOM      3  C   UNL     1      55.816 -28.366  26.588  0.00  0.00    +0.000 A 
ATOM      4  C   UNL     1      56.708 -27.899  25.653  0.00  0.00    +0.000 A 
ATOM      5  C   UNL     1      58.012 -28.340  25.660  0.00  0.00    +0.000 A 
ATOM      6  C   UNL     1      58.459 -29.257  26.617  0.00  0.00    +0.000 A 
ENDROOT
BRANCH   1   8
ATOM      7  C   UNL     1      56.939 -31.519  29.032  0.00  0.00    +0.000 C 
ATOM      8  O   UNL     1      57.879 -30.563  28.562  0.00  0.00    +0.000 OA
ENDBRANCH   1   8
BRANCH   4   9
ATOM      9  C   UNL     1      56.252 -26.893  24.608  0.00  0.00    +0.000 C 
ATOM     10  O   UNL     1      56.716 -25.710  24.618  0.00  0.00    +0.000 OA
BRANCH   9  11
ATOM     11  C   UNL     1      55.243 -27.304  23.548  0.00  0.00    +0.000 C 
ATOM     12  C   UNL     1      55.376 -28.497  22.907  0.00  0.00    +0.000 C 
BRANCH  12  13
ATOM     13  C   UNL     1      54.366 -28.907  21.848  0.00  0.00    +0.000 A 
ATOM     14  C   UNL     1      53.118 -28.308  21.892  0.00  0.00    +0.000 A 
ATOM     15  C   UNL     1      52.153 -28.930  21.064  0.00  0.00    +0.000 A 
ATOM     16  C   UNL     1      52.438 -29.752  20.070  0.00  0.00    +0.000 A 
ATOM     17  C   UNL     1      53.709 -30.258  20.043  0.00  0.00    +0.000 A 
ATOM     18  C   UNL     1      54.671 -29.795  20.908  0.00  0.00    +0.000 A 
ENDBRANCH  12  13
ENDBRANCH   9  11
ENDBRANCH   4   9
BRANCH   5  19
ATOM     19  O   UNL     1      58.919 -27.856  24.679  0.00  0.00    +0.000 OA
ATOM     20  H   UNL     1      59.438 -27.019  24.848  0.00  0.00    +0.000 HD
ENDBRANCH   5  19
TORSDOF 5
ENDMDL
MODEL 3
REMARK VINA RESULT:    -5.595      3.089      5.216
REMARK INTER + INTRA:          -7.756
REMARK INTER:                  -6.958
REMARK INTRA:                  -0.798
REMARK UNBOUND:                -0.688
REMARK  Name = 
REMARK  6 active torsions:
REMARK  status: ('A' for Active; 'I' for Inactive)
REMARK    1  A    between atoms: C_1  and  O_2
REMARK    2  A    between atoms: O_2  and  C_3
REMARK    3  A    between atoms: C_6  and  C_7
REMARK    4  A    between atoms: C_7  and  C_9
REMARK    5  A    between atoms: C_10  and  C_11
REMARK    6  A    between atoms: C_17  and  O_18
REMARK                            x       y       z     vdW  Elec       q    Type
REMARK                         _______ _______ _______ _____ _____    ______ ____
ROOT
ATOM      1  C   UNL     1      54.912 -24.885  26.778  0.00  0.00    +0.000 A 
ATOM      2  C   UNL     1      54.668 -26.200  27.094  0.00  0.00    +0.000 A 
ATOM      3  C   UNL     1      55.234 -27.210  26.341  0.00  0.00    +0.000 A 
ATOM      4  C   UNL     1      56.057 -26.907  25.283  0.00  0.00    +0.000 A 
ATOM      5  C   UNL     1      56.333 -25.593  24.976  0.00  0.00    +0.000 A 
ATOM      6  C   UNL     1      55.777 -24.546  25.717  0.00  0.00    +0.000 A 
ENDROOT
BRANCH   1   8
ATOM      7  C   UNL     1      53.325 -23.091  26.960  0.00  0.00    +0.000 C 
ATOM      8  O   UNL     1      54.309 -23.939  27.534  0.00  0.00    +0.000 OA
ENDBRANCH   1   8
BRANCH   4   9
ATOM      9  C   UNL     1      56.667 -28.025  24.452  0.00  0.00    +0.000 C 
ATOM     10  O   UNL     1      57.886 -28.345  24.614  0.00  0.00    +0.000 OA
BRANCH   9  11
ATOM     11  C   UNL     1      55.816 -28.760  23.430  0.00  0.00    +0.000 C 
ATOM     12  C   UNL     1      54.808 -28.109  22.788  0.00  0.00    +0.000 C 
BRANCH  12  13
ATOM     13  C   UNL     1      53.959 -28.845  21.765  0.00  0.00    +0.000 A 
ATOM     14  C   UNL     1      54.587 -29.805  20.988  0.00  0.00    +0.000 A 
ATOM     15  C   UNL     1      53.815 -30.246  19.886  0.00  0.00    +0.000 A 
ATOM     16  C   UNL     1      52.511 -30.075  19.768  0.00  0.00    +0.000 A 
ATOM     17  C   UNL     1      51.939 -29.161  20.611  0.00  0.00    +0.000 A 
ATOM     18  C   UNL     1      52.663 -28.589  21.630  0.00  0.00    +0.000 A 
ENDBRANCH  12  13
ENDBRANCH   9  11
ENDBRANCH   4   9
BRANCH   5  19
ATOM     19  O   UNL     1      57.196 -25.296  23.887  0.00  0.00    +0.000 OA
ATOM     20  H   UNL     1      57.149 -25.840  23.050  0.00  0.00    +0.000 HD
ENDBRANCH   5  19
TORSDOF 5
ENDMDL
MODEL 4
REMARK VINA RESULT:    -5.416      2.271      3.354
REMARK INTER + INTRA:          -7.529
REMARK INTER:                  -6.904
REMARK INTRA:                  -0.625
REMARK UNBOUND:                -0.688
REMARK  Name = 
REMARK  6 active torsions:
REMARK  status: ('A' for Active; 'I' for Inactive)
REMARK    1  A    between atoms: C_1  and  O_2
REMARK    2  A    between atoms: O_2  and  C_3
REMARK    3  A    between atoms: C_6  and  C_7
REMARK    4  A    between atoms: C_7  and  C_9
REMARK    5  A    between atoms: C_10  and  C_11
REMARK    6  A    between atoms: C_17  and  O_18
REMARK                            x       y       z     vdW  Elec       q    Type
REMARK                         _______ _______ _______ _____ _____    ______ ____
ROOT
ATOM      1  C   UNL     1      56.700 -29.002  24.941  0.00  0.00    +0.000 A 
ATOM      2  C   UNL     1      55.960 -28.994  26.100  0.00  0.00    +0.000 A 
ATOM      3  C   UNL     1      55.524 -27.797  26.635  0.00  0.00    +0.000 A 
ATOM      4  C   UNL     1      55.811 -26.610  26.004  0.00  0.00    +0.000 A 
ATOM      5  C   UNL     1      56.525 -26.609  24.826  0.00  0.00    +0.000 A 
ATOM      6  C   UNL     1      56.982 -27.802  24.256  0.00  0.00    +0.000 A 
ENDROOT
BRANCH   1   8
ATOM      7  C   UNL     1      57.718 -31.135  25.368  0.00  0.00    +0.000 C 
ATOM      8  O   UNL     1      57.122 -30.201  24.479  0.00  0.00    +0.000 OA
ENDBRANCH   1   8
BRANCH   4   9
ATOM      9  C   UNL     1      55.337 -25.298  26.606  0.00  0.00    +0.000 C 
ATOM     10  O   UNL     1      56.008 -24.744  27.532  0.00  0.00    +0.000 OA
BRANCH   9  11
ATOM     11  C   UNL     1      54.060 -24.647  26.099  0.00  0.00    +0.000 C 
ATOM     12  C   UNL     1      53.077 -25.412  25.552  0.00  0.00    +0.000 C 
BRANCH  12  13
ATOM     13  C   UNL     1      51.801 -24.761  25.045  0.00  0.00    +0.000 A 
ATOM     14  C   UNL     1      51.159 -25.364  23.976  0.00  0.00    +0.000 A 
ATOM     15  C   UNL     1      50.150 -24.564  23.388  0.00  0.00    +0.000 A 
ATOM     16  C   UNL     1      49.590 -23.519  23.968  0.00  0.00    +0.000 A 
ATOM     17  C   UNL     1      50.236 -23.011  25.061  0.00  0.00    +0.000 A 
ATOM     18  C   UNL     1      51.311 -23.665  25.613  0.00  0.00    +0.000 A 
ENDBRANCH  12  13
ENDBRANCH   9  11
ENDBRANCH   4   9
BRANCH   5  19
ATOM     19  O   UNL     1      56.803 -25.375  24.179  0.00  0.00    +0.000 OA
ATOM     20  H   UNL     1      57.745 -25.132  23.950  0.00  0.00    +0.000 HD
ENDBRANCH   5  19
TORSDOF 5
ENDMDL
MODEL 5
REMARK VINA RESULT:    -5.289      2.643      4.225
REMARK INTER + INTRA:          -7.369
REMARK INTER:                  -6.681
REMARK INTRA:                  -0.688
REMARK UNBOUND:                -0.688
REMARK  Name = 
REMARK  6 active torsions:
REMARK  status: ('A' for Active; 'I' for Inactive)
REMARK    1  A    between atoms: C_1  and  O_2
REMARK    2  A    between atoms: O_2  and  C_3
REMARK    3  A    between atoms: C_6  and  C_7
REMARK    4  A    between atoms: C_7  and  C_9
REMARK    5  A    between atoms: C_10  and  C_11
REMARK    6  A    between atoms: C_17  and  O_18
REMARK                            x       y       z     vdW  Elec       q    Type
REMARK                         _______ _______ _______ _____ _____    ______ ____
ROOT
ATOM      1  C   UNL     1      56.038 -32.297  23.546  0.00  0.00    +0.000 A 
ATOM      2  C   UNL     1      55.370 -31.198  23.062  0.00  0.00    +0.000 A 
ATOM      3  C   UNL     1      55.749 -29.928  23.456  0.00  0.00    +0.000 A 
ATOM      4  C   UNL     1      56.805 -29.757  24.318  0.00  0.00    +0.000 A 
ATOM      5  C   UNL     1      57.500 -30.850  24.786  0.00  0.00    +0.000 A 
ATOM      6  C   UNL     1      57.144 -32.149  24.408  0.00  0.00    +0.000 A 
ENDROOT
BRANCH   1   8
ATOM      7  C   UNL     1      55.344 -33.761  21.773  0.00  0.00    +0.000 C 
ATOM      8  O   UNL     1      55.605 -33.515  23.147  0.00  0.00    +0.000 OA
ENDBRANCH   1   8
BRANCH   4   9
ATOM      9  C   UNL     1      57.207 -28.358  24.755  0.00  0.00    +0.000 C 
ATOM     10  O   UNL     1      58.410 -27.971  24.621  0.00  0.00    +0.000 OA
BRANCH   9  11
ATOM     11  C   UNL     1      56.169 -27.421  25.351  0.00  0.00    +0.000 C 
ATOM     12  C   UNL     1      56.216 -26.089  25.075  0.00  0.00    +0.000 C 
BRANCH  12  13
ATOM     13  C   UNL     1      55.178 -25.153  25.671  0.00  0.00    +0.000 A 
ATOM     14  C   UNL     1      53.867 -25.598  25.709  0.00  0.00    +0.000 A 
ATOM     15  C   UNL     1      52.926 -24.585  26.014  0.00  0.00    +0.000 A 
ATOM     16  C   UNL     1      53.228 -23.424  26.566  0.00  0.00    +0.000 A 
ATOM     17  C   UNL     1      54.550 -23.071  26.557  0.00  0.00    +0.000 A 
ATOM     18  C   UNL     1      55.515 -23.960  26.149  0.00  0.00    +0.000 A 
ENDBRANCH  12  13
ENDBRANCH   9  11
ENDBRANCH   4   9
BRANCH   5  19
ATOM     19  O   UNL     1      58.597 -30.655  25.668  0.00  0.00    +0.000 OA
ATOM     20  H   UNL     1      58.585 -29.900  26.322  0.00  0.00    +0.000 HD
ENDBRANCH   5  19
TORSDOF 5
ENDMDL
