MODEL 1
REMARK VINA RESULT:    -5.648      0.000      0.000
REMARK INTER + INTRA:          -7.796
REMARK INTER:                  -7.353
REMARK INTRA:                  -0.443
REMARK UNBOUND:                -0.497
REMARK  Name = 
REMARK  7 active torsions:
REMARK  status: ('A' for Active; 'I' for Inactive)
REMARK    1  A    between atoms: C_1  and  O_2
REMARK    2  A    between atoms: O_2  and  C_3
REMARK    3  A    between atoms: C_5  and  C_6
REMARK    4  A    between atoms: C_7  and  C_8
REMARK    5  A    between atoms: C_8  and  C_10
REMARK    6  A    between atoms: C_13  and  O_14
REMARK    7  A    between atoms: C_19  and  O_20
REMARK                            x       y       z     vdW  Elec       q    Type
REMARK                         _______ _______ _______ _____ _____    ______ ____
ROOT
ATOM      1  C   UNL     1      54.290 -28.430  22.669  0.00  0.00    +0.000 C 
ATOM      2  C   UNL     1      53.360 -27.449  22.827  0.00  0.00    +0.000 C 
ENDROOT
BRANCH   1   5
ATOM      3  C   UNL     1      57.284 -29.649  24.627  0.00  0.00    +0.000 A 
ATOM      4  C   UNL     1      56.165 -29.635  23.828  0.00  0.00    +0.000 A 
ATOM      5  C   UNL     1      55.539 -28.439  23.535  0.00  0.00    +0.000 A 
ATOM      6  C   UNL     1      56.041 -27.257  24.023  0.00  0.00    +0.000 A 
ATOM      7  C   UNL     1      57.179 -27.255  24.800  0.00  0.00    +0.000 A 
ATOM      8  C   UNL     1      57.837 -28.448  25.116  0.00  0.00    +0.000 A 
BRANCH   3  10
ATOM      9  C   UNL     1      57.317 -31.972  24.205  0.00  0.00    +0.000 C 
ATOM     10  O   UNL     1      57.839 -30.851  24.903  0.00  0.00    +0.000 OA
ENDBRANCH   3  10
BRANCH   8  11
ATOM     11  O   UNL     1      59.020 -28.449  25.902  0.00  0.00    +0.000 OA
ATOM     12  H   UNL     1      59.262 -27.643  26.442  0.00  0.00    +0.000 HD
ENDBRANCH   8  11
ENDBRANCH   1   5
BRANCH   2  13
ATOM     13  C   UNL     1      52.111 -27.440  21.961  0.00  0.00    +0.000 C 
ATOM     14  O   UNL     1      51.937 -28.348  21.090  0.00  0.00    +0.000 OA
BRANCH  13  15
ATOM     15  C   UNL     1      51.072 -26.344  22.135  0.00  0.00    +0.000 A 
ATOM     16  C   UNL     1      50.294 -26.057  21.036  0.00  0.00    +0.000 A 
ATOM     17  C   UNL     1      49.347 -25.028  21.072  0.00  0.00    +0.000 A 
ATOM     18  C   UNL     1      49.208 -24.310  22.277  0.00  0.00    +0.000 A 
ATOM     19  C   UNL     1      50.013 -24.586  23.358  0.00  0.00    +0.000 A 
ATOM     20  C   UNL     1      50.938 -25.608  23.288  0.00  0.00    +0.000 A 
BRANCH  18  21
ATOM     21  O   UNL     1      48.303 -23.314  22.412  0.00  0.00    +0.000 OA
ATOM     22  H   UNL     1      48.604 -22.360  22.402  0.00  0.00    +0.000 HD
ENDBRANCH  18  21
ENDBRANCH  13  15
ENDBRANCH   2  13
TORSDOF 6
ENDMDL
MODEL 2
REMARK VINA RESULT:    -5.541      2.254      7.839
REMARK INTER + INTRA:          -7.658
REMARK INTER:                  -7.094
REMARK INTRA:                  -0.564
REMARK UNBOUND:                -0.497
REMARK  Name = 
REMARK  7 active torsions:
REMARK  status: ('A' for Active; 'I' for Inactive)
REMARK    1  A    between atoms: C_1  and  O_2
REMARK    2  A    between atoms: O_2  and  C_3
REMARK    3  A    between atoms: C_5  and  C_6
REMARK    4  A    between atoms: C_7  and  C_8
REMARK    5  A    between atoms: C_8  and  C_10
REMARK    6  A    between atoms: C_13  and  O_14
REMARK    7  A    between atoms: C_19  and  O_20
REMARK                            x       y       z     vdW  Elec       q    Type
REMARK                         _______ _______ _______ _____ _____    ______ ____
ROOT
ATOM      1  C   UNL     1      53.172 -27.293  24.074  0.00  0.00    +0.000 C 
ATOM      2  C   UNL     1      54.111 -27.253  23.088  0.00  0.00    +0.000 C 
ENDROOT
BRANCH   1   5
ATOM      3  C   UNL     1      51.591 -24.212  25.585  0.00  0.00    +0.000 A 
ATOM      4  C   UNL     1      52.438 -25.274  25.375  0.00  0.00    +0.000 A 
ATOM      5  C   UNL     1      52.248 -26.107  24.290  0.00  0.00    +0.000 A 
ATOM      6  C   UNL     1      51.225 -25.867  23.405  0.00  0.00    +0.000 A 
ATOM      7  C   UNL     1      50.388 -24.787  23.588  0.00  0.00    +0.000 A 
ATOM      8  C   UNL     1      50.553 -23.925  24.676  0.00  0.00    +0.000 A 
BRANCH   3  10
ATOM      9  C   UNL     1      53.139 -22.993  26.888  0.00  0.00    +0.000 C 
ATOM     10  O   UNL     1      51.810 -23.446  26.679  0.00  0.00    +0.000 OA
ENDBRANCH   3  10
BRANCH   8  11
ATOM     11  O   UNL     1      49.704 -22.801  24.859  0.00  0.00    +0.000 OA
ATOM     12  H   UNL     1      49.094 -22.510  24.122  0.00  0.00    +0.000 HD
ENDBRANCH   8  11
ENDBRANCH   1   5
BRANCH   2  13
ATOM     13  C   UNL     1      55.035 -28.439  22.872  0.00  0.00    +0.000 C 
ATOM     14  O   UNL     1      54.856 -29.210  21.878  0.00  0.00    +0.000 OA
BRANCH  13  15
ATOM     15  C   UNL     1      56.172 -28.705  23.845  0.00  0.00    +0.000 A 
ATOM     16  C   UNL     1      56.307 -30.001  24.292  0.00  0.00    +0.000 A 
ATOM     17  C   UNL     1      57.284 -30.342  25.232  0.00  0.00    +0.000 A 
ATOM     18  C   UNL     1      58.135 -29.316  25.692  0.00  0.00    +0.000 A 
ATOM     19  C   UNL     1      57.971 -28.020  25.261  0.00  0.00    +0.000 A 
ATOM     20  C   UNL     1      56.995 -27.719  24.332  0.00  0.00    +0.000 A 
BRANCH  18  21
ATOM     21  O   UNL     1      59.124 -29.556  26.583  0.00  0.00    +0.000 OA
ATOM     22  H   UNL     1      59.092 -30.376  27.155  0.00  0.00    +0.000 HD
ENDBRANCH  18  21
ENDBRANCH  13  15
ENDBRANCH   2  13
TORSDOF 6
ENDMDL
MODEL 3
REMARK VINA RESULT:    -5.517      1.467      7.868
REMARK INTER + INTRA:          -7.627
REMARK INTER:                  -7.087
REMARK INTRA:                  -0.540
REMARK UNBOUND:                -0.497
REMARK  Name = 
REMARK  7 active torsions:
REMARK  status: ('A' for Active; 'I' for Inactive)
REMARK    1  A    between atoms: C_1  and  O_2
REMARK    2  A    between atoms: O_2  and  C_3
REMARK    3  A    between atoms: C_5  and  C_6
REMARK    4  A    between atoms: C_7  and  C_8
REMARK    5  A    between atoms: C_8  and  C_10
REMARK    6  A    between atoms: C_13  and  O_14
REMARK    7  A    between atoms: C_19  and  O_20
REMARK                            x       y       z     vdW  Elec       q    Type
REMARK                         _______ _______ _______ _____ _____    ______ ____
ROOT
ATOM      1  C   UNL     1      52.492 -27.342  23.513  0.00  0.00    +0.000 C 
ATOM      2  C   UNL     1      53.439 -27.498  22.548  0.00  0.00    +0.000 C 
ENDROOT
BRANCH   1   5
ATOM      3  C   UNL     1      50.560 -24.222  24.417  0.00  0.00    +0.000 A 
ATOM      4  C   UNL     1      51.455 -25.264  24.472  0.00  0.00    +0.000 A 
ATOM      5  C   UNL     1      51.517 -26.179  23.439  0.00  0.00    +0.000 A 
ATOM      6  C   UNL     1      50.699 -26.042  22.343  0.00  0.00    +0.000 A 
ATOM      7  C   UNL     1      49.819 -24.984  22.263  0.00  0.00    +0.000 A 
ATOM      8  C   UNL     1      49.731 -24.040  23.291  0.00  0.00    +0.000 A 
BRANCH   3  10
ATOM      9  C   UNL     1      51.716 -23.254  26.235  0.00  0.00    +0.000 C 
ATOM     10  O   UNL     1      50.526 -23.373  25.469  0.00  0.00    +0.000 OA
ENDBRANCH   3  10
BRANCH   8  11
ATOM     11  O   UNL     1      48.838 -22.939  23.205  0.00  0.00    +0.000 OA
ATOM     12  H   UNL     1      48.655 -22.513  22.319  0.00  0.00    +0.000 HD
ENDBRANCH   8  11
ENDBRANCH   1   5
BRANCH   2  13
ATOM     13  C   UNL     1      54.415 -28.661  22.623  0.00  0.00    +0.000 C 
ATOM     14  O   UNL     1      54.192 -29.720  21.957  0.00  0.00    +0.000 OA
BRANCH  13  15
ATOM     15  C   UNL     1      55.655 -28.559  23.495  0.00  0.00    +0.000 A 
ATOM     16  C   UNL     1      56.241 -29.748  23.869  0.00  0.00    +0.000 A 
ATOM     17  C   UNL     1      57.353 -29.768  24.717  0.00  0.00    +0.000 A 
ATOM     18  C   UNL     1      57.860 -28.529  25.160  0.00  0.00    +0.000 A 
ATOM     19  C   UNL     1      57.247 -27.351  24.804  0.00  0.00    +0.000 A 
ATOM     20  C   UNL     1      56.150 -27.367  23.966  0.00  0.00    +0.000 A 
BRANCH  18  21
ATOM     21  O   UNL     1      58.945 -28.450  25.963  0.00  0.00    +0.000 OA
ATOM     22  H   UNL     1      59.752 -27.942  25.663  0.00  0.00    +0.000 HD
ENDBRANCH  18  21
ENDBRANCH  13  15
ENDBRANCH   2  13
TORSDOF 6
ENDMDL
MODEL 4
REMARK VINA RESULT:    -5.449      1.440      7.896
REMARK INTER + INTRA:          -7.540
REMARK INTER:                  -7.004
REMARK INTRA:                  -0.536
REMARK UNBOUND:                -0.497
REMARK  Name = 
REMARK  7 active torsions:
REMARK  status: ('A' for Active; 'I' for Inactive)
REMARK    1  A    between atoms: C_1  and  O_2
REMARK    2  A    between atoms: O_2  and  C_3
REMARK    3  A    between atoms: C_5  and  C_6
REMARK    4  A    between atoms: C_7  and  C_8
REMARK    5  A    between atoms: C_8  and  C_10
REMARK    6  A    between atoms: C_13  and  O_14
REMARK    7  A    between atoms: C_19  and  O_20
REMARK                            x       y       z     vdW  Elec       q    Type
REMARK                         _______ _______ _______ _____ _____    ______ ____
ROOT
ATOM      1  C   UNL     1      52.896 -27.315  23.810  0.00  0.00    +0.000 C 
ATOM      2  C   UNL     1      53.859 -27.263  22.849  0.00  0.00    +0.000 C 
ENDROOT
BRANCH   1   5
ATOM      3  C   UNL     1      50.264 -24.633  23.417  0.00  0.00    +0.000 A 
ATOM      4  C   UNL     1      51.038 -25.745  23.185  0.00  0.00    +0.000 A 
ATOM      5  C   UNL     1      52.028 -26.097  24.081  0.00  0.00    +0.000 A 
ATOM      6  C   UNL     1      52.233 -25.351  25.216  0.00  0.00    +0.000 A 
ATOM      7  C   UNL     1      51.443 -24.252  25.475  0.00  0.00    +0.000 A 
ATOM      8  C   UNL     1      50.431 -23.867  24.589  0.00  0.00    +0.000 A 
BRANCH   3  10
ATOM      9  C   UNL     1      49.409 -24.994  21.245  0.00  0.00    +0.000 C 
ATOM     10  O   UNL     1      49.327 -24.321  22.492  0.00  0.00    +0.000 OA
ENDBRANCH   3  10
BRANCH   8  11
ATOM     11  O   UNL     1      49.604 -22.745  24.860  0.00  0.00    +0.000 OA
ATOM     12  H   UNL     1      49.327 -22.137  24.116  0.00  0.00    +0.000 HD
ENDBRANCH   8  11
ENDBRANCH   1   5
BRANCH   2  13
ATOM     13  C   UNL     1      54.727 -28.481  22.577  0.00  0.00    +0.000 C 
ATOM     14  O   UNL     1      54.569 -29.147  21.508  0.00  0.00    +0.000 OA
BRANCH  13  15
ATOM     15  C   UNL     1      55.783 -28.903  23.587  0.00  0.00    +0.000 A 
ATOM     16  C   UNL     1      56.563 -27.897  24.115  0.00  0.00    +0.000 A 
ATOM     17  C   UNL     1      57.600 -28.183  25.008  0.00  0.00    +0.000 A 
ATOM     18  C   UNL     1      57.805 -29.533  25.360  0.00  0.00    +0.000 A 
ATOM     19  C   UNL     1      57.040 -30.530  24.803  0.00  0.00    +0.000 A 
ATOM     20  C   UNL     1      56.024 -30.212  23.923  0.00  0.00    +0.000 A 
BRANCH  18  21
ATOM     21  O   UNL     1      58.769 -29.902  26.235  0.00  0.00    +0.000 OA
ATOM     22  H   UNL     1      58.796 -30.840  26.582  0.00  0.00    +0.000 HD
ENDBRANCH  18  21
ENDBRANCH  13  15
ENDBRANCH   2  13
TORSDOF 6
ENDMDL
MODEL 5
REMARK VINA RESULT:    -5.445      2.061      2.621
REMARK INTER + INTRA:          -7.535
REMARK INTER:                  -7.037
REMARK INTRA:                  -0.497
REMARK UNBOUND:                -0.497
REMARK  Name = 
REMARK  7 active torsions:
REMARK  status: ('A' for Active; 'I' for Inactive)
REMARK    1  A    between atoms: C_1  and  O_2
REMARK    2  A    between atoms: O_2  and  C_3
REMARK    3  A    between atoms: C_5  and  C_6
REMARK    4  A    between atoms: C_7  and  C_8
REMARK    5  A    between atoms: C_8  and  C_10
REMARK    6  A    between atoms: C_13  and  O_14
REMARK    7  A    between atoms: C_19  and  O_20
REMARK                            x       y       z     vdW  Elec       q    Type
REMARK                         _______ _______ _______ _____ _____    ______ ____
ROOT
ATOM      1  C   UNL     1      53.118 -26.680  24.756  0.00  0.00    +0.000 C 
ATOM      2  C   UNL     1      52.655 -25.466  25.163  0.00  0.00    +0.000 C 
ENDROOT
BRANCH   1   5
ATOM      3  C   UNL     1      56.438 -28.486  24.723  0.00  0.00    +0.000 A 
ATOM      4  C   UNL     1      55.085 -28.243  24.745  0.00  0.00    +0.000 A 
ATOM      5  C   UNL     1      54.614 -26.945  24.710  0.00  0.00    +0.000 A 
ATOM      6  C   UNL     1      55.493 -25.892  24.633  0.00  0.00    +0.000 A 
ATOM      7  C   UNL     1      56.850 -26.123  24.580  0.00  0.00    +0.000 A 
ATOM      8  C   UNL     1      57.361 -27.425  24.614  0.00  0.00    +0.000 A 
BRANCH   3  10
ATOM      9  C   UNL     1      56.851 -30.380  26.071  0.00  0.00    +0.000 C 
ATOM     10  O   UNL     1      56.842 -29.775  24.787  0.00  0.00    +0.000 OA
ENDBRANCH   3  10
BRANCH   8  11
ATOM     11  O   UNL     1      58.758 -27.669  24.541  0.00  0.00    +0.000 OA
ATOM     12  H   UNL     1      59.340 -27.478  25.332  0.00  0.00    +0.000 HD
ENDBRANCH   8  11
ENDBRANCH   1   5
BRANCH   2  13
ATOM     13  C   UNL     1      51.160 -25.202  25.209  0.00  0.00    +0.000 C 
ATOM     14  O   UNL     1      50.514 -25.399  26.285  0.00  0.00    +0.000 OA
BRANCH  13  15
ATOM     15  C   UNL     1      50.436 -24.704  23.968  0.00  0.00    +0.000 A 
ATOM     16  C   UNL     1      49.844 -23.464  24.060  0.00  0.00    +0.000 A 
ATOM     17  C   UNL     1      49.105 -22.937  22.996  0.00  0.00    +0.000 A 
ATOM     18  C   UNL     1      49.004 -23.713  21.823  0.00  0.00    +0.000 A 
ATOM     19  C   UNL     1      49.575 -24.963  21.755  0.00  0.00    +0.000 A 
ATOM     20  C   UNL     1      50.297 -25.452  22.825  0.00  0.00    +0.000 A 
BRANCH  18  21
ATOM     21  O   UNL     1      48.331 -23.275  20.735  0.00  0.00    +0.000 OA
ATOM     22  H   UNL     1      47.549 -23.795  20.389  0.00  0.00    +0.000 HD
ENDBRANCH  18  21
ENDBRANCH  13  15
ENDBRANCH   2  13
TORSDOF 6
ENDMDL
