MODEL 1
REMARK VINA RESULT:    -4.688      0.000      0.000
REMARK INTER + INTRA:         -10.334
REMARK INTER:                  -7.126
REMARK INTRA:                  -3.209
REMARK UNBOUND:                -3.180
REMARK  Name = 
REMARK  10 active torsions:
REMARK  status: ('A' for Active; 'I' for Inactive)
REMARK    1  A    between atoms: C_2  and  C_3
REMARK    2  A    between atoms: C_2  and  C_14
REMARK    3  A    between atoms: C_3  and  C_4
REMARK    4  A    between atoms: C_4  and  C_5
REMARK    5  A    between atoms: C_5  and  C_6
REMARK    6  A    between atoms: C_6  and  C_7
REMARK    7  A    between atoms: C_10  and  O_11
REMARK    8  A    between atoms: C_14  and  C_15
REMARK    9  A    between atoms: C_15  and  C_16
REMARK   10  A    between atoms: C_19  and  O_20
REMARK                            x       y       z     vdW  Elec       q    Type
REMARK                         _______ _______ _______ _____ _____    ______ ____
ROOT
ATOM      1  O   UNL     1      50.215 -25.164  28.046  0.00  0.00    +0.000 OA
ATOM      2  C   UNL     1      51.480 -25.243  27.951  0.00  0.00    +0.000 C 
ENDROOT
BRANCH   2   3
ATOM      3  C   UNL     1      52.270 -26.047  28.971  0.00  0.00    +0.000 C 
BRANCH   3   4
ATOM      4  C   UNL     1      53.546 -25.304  29.326  0.00  0.00    +0.000 C 
BRANCH   4   5
ATOM      5  C   UNL     1      54.733 -26.246  29.204  0.00  0.00    +0.000 C 
BRANCH   5   6
ATOM      6  C   UNL     1      54.262 -27.585  28.660  0.00  0.00    +0.000 C 
BRANCH   6   7
ATOM      7  C   UNL     1      55.379 -28.227  27.854  0.00  0.00    +0.000 A 
ATOM      8  C   UNL     1      56.649 -27.743  28.078  0.00  0.00    +0.000 A 
ATOM      9  C   UNL     1      57.766 -28.350  27.494  0.00  0.00    +0.000 A 
ATOM     10  C   UNL     1      57.543 -29.482  26.682  0.00  0.00    +0.000 A 
ATOM     11  C   UNL     1      56.269 -29.936  26.442  0.00  0.00    +0.000 A 
ATOM     12  C   UNL     1      55.188 -29.313  27.036  0.00  0.00    +0.000 A 
BRANCH  10  13
ATOM     13  O   UNL     1      58.564 -30.147  26.094  0.00  0.00    +0.000 OA
ATOM     14  H   UNL     1      58.596 -30.233  25.099  0.00  0.00    +0.000 HD
ENDBRANCH  10  13
ENDBRANCH   6   7
ENDBRANCH   5   6
ENDBRANCH   4   5
ENDBRANCH   3   4
ENDBRANCH   2   3
BRANCH   2  15
ATOM     15  C   UNL     1      52.204 -24.533  26.819  0.00  0.00    +0.000 C 
BRANCH  15  16
ATOM     16  C   UNL     1      52.274 -25.450  25.609  0.00  0.00    +0.000 C 
BRANCH  16  17
ATOM     17  C   UNL     1      53.727 -25.747  25.281  0.00  0.00    +0.000 A 
ATOM     18  C   UNL     1      54.043 -26.808  24.462  0.00  0.00    +0.000 A 
ATOM     19  C   UNL     1      55.374 -27.097  24.137  0.00  0.00    +0.000 A 
ATOM     20  C   UNL     1      56.373 -26.253  24.663  0.00  0.00    +0.000 A 
ATOM     21  C   UNL     1      56.047 -25.215  25.504  0.00  0.00    +0.000 A 
ATOM     22  C   UNL     1      54.724 -24.958  25.804  0.00  0.00    +0.000 A 
BRANCH  20  23
ATOM     23  O   UNL     1      57.682 -26.442  24.383  0.00  0.00    +0.000 OA
ATOM     24  H   UNL     1      58.295 -26.812  25.081  0.00  0.00    +0.000 HD
ENDBRANCH  20  23
ENDBRANCH  16  17
ENDBRANCH  15  16
ENDBRANCH   2  15
TORSDOF 10
ENDMDL
MODEL 2
REMARK VINA RESULT:    -4.665      1.551      3.725
REMARK INTER + INTRA:         -10.299
REMARK INTER:                  -7.152
REMARK INTRA:                  -3.147
REMARK UNBOUND:                -3.180
REMARK  Name = 
REMARK  10 active torsions:
REMARK  status: ('A' for Active; 'I' for Inactive)
REMARK    1  A    between atoms: C_2  and  C_3
REMARK    2  A    between atoms: C_2  and  C_14
REMARK    3  A    between atoms: C_3  and  C_4
REMARK    4  A    between atoms: C_4  and  C_5
REMARK    5  A    between atoms: C_5  and  C_6
REMARK    6  A    between atoms: C_6  and  C_7
REMARK    7  A    between atoms: C_10  and  O_11
REMARK    8  A    between atoms: C_14  and  C_15
REMARK    9  A    between atoms: C_15  and  C_16
REMARK   10  A    between atoms: C_19  and  O_20
REMARK                            x       y       z     vdW  Elec       q    Type
REMARK                         _______ _______ _______ _____ _____    ______ ____
ROOT
ATOM      1  O   UNL     1      51.831 -25.349  27.770  0.00  0.00    +0.000 OA
ATOM      2  C   UNL     1      53.078 -25.317  27.524  0.00  0.00    +0.000 C 
ENDROOT
BRANCH   2   3
ATOM      3  C   UNL     1      53.583 -24.673  26.243  0.00  0.00    +0.000 C 
BRANCH   3   4
ATOM      4  C   UNL     1      55.045 -24.294  26.408  0.00  0.00    +0.000 C 
BRANCH   4   5
ATOM      5  C   UNL     1      55.879 -25.026  25.368  0.00  0.00    +0.000 C 
BRANCH   5   6
ATOM      6  C   UNL     1      55.025 -26.084  24.689  0.00  0.00    +0.000 C 
BRANCH   6   7
ATOM      7  C   UNL     1      55.824 -27.370  24.551  0.00  0.00    +0.000 A 
ATOM      8  C   UNL     1      57.188 -27.259  24.699  0.00  0.00    +0.000 A 
ATOM      9  C   UNL     1      58.006 -28.394  24.726  0.00  0.00    +0.000 A 
ATOM     10  C   UNL     1      57.379 -29.652  24.614  0.00  0.00    +0.000 A 
ATOM     11  C   UNL     1      56.019 -29.748  24.437  0.00  0.00    +0.000 A 
ATOM     12  C   UNL     1      55.242 -28.606  24.415  0.00  0.00    +0.000 A 
BRANCH  10  13
ATOM     13  O   UNL     1      58.086 -30.805  24.653  0.00  0.00    +0.000 OA
ATOM     14  H   UNL     1      58.371 -31.244  23.801  0.00  0.00    +0.000 HD
ENDBRANCH  10  13
ENDBRANCH   6   7
ENDBRANCH   5   6
ENDBRANCH   4   5
ENDBRANCH   3   4
ENDBRANCH   2   3
BRANCH   2  15
ATOM     15  C   UNL     1      54.064 -25.922  28.510  0.00  0.00    +0.000 C 
BRANCH  15  16
ATOM     16  C   UNL     1      53.989 -27.438  28.434  0.00  0.00    +0.000 C 
BRANCH  16  17
ATOM     17  C   UNL     1      55.394 -28.010  28.339  0.00  0.00    +0.000 A 
ATOM     18  C   UNL     1      56.484 -27.182  28.489  0.00  0.00    +0.000 A 
ATOM     19  C   UNL     1      57.788 -27.685  28.415  0.00  0.00    +0.000 A 
ATOM     20  C   UNL     1      57.942 -29.070  28.202  0.00  0.00    +0.000 A 
ATOM     21  C   UNL     1      56.847 -29.882  28.026  0.00  0.00    +0.000 A 
ATOM     22  C   UNL     1      55.574 -29.352  28.103  0.00  0.00    +0.000 A 
BRANCH  20  23
ATOM     23  O   UNL     1      59.163 -29.648  28.142  0.00  0.00    +0.000 OA
ATOM     24  H   UNL     1      59.983 -29.105  28.326  0.00  0.00    +0.000 HD
ENDBRANCH  20  23
ENDBRANCH  16  17
ENDBRANCH  15  16
ENDBRANCH   2  15
TORSDOF 10
ENDMDL
MODEL 3
REMARK VINA RESULT:    -4.646      2.136      3.382
REMARK INTER + INTRA:         -10.271
REMARK INTER:                  -7.209
REMARK INTRA:                  -3.062
REMARK UNBOUND:                -3.180
REMARK  Name = 
REMARK  10 active torsions:
REMARK  status: ('A' for Active; 'I' for Inactive)
REMARK    1  A    between atoms: C_2  and  C_3
REMARK    2  A    between atoms: C_2  and  C_14
REMARK    3  A    between atoms: C_3  and  C_4
REMARK    4  A    between atoms: C_4  and  C_5
REMARK    5  A    between atoms: C_5  and  C_6
REMARK    6  A    between atoms: C_6  and  C_7
REMARK    7  A    between atoms: C_10  and  O_11
REMARK    8  A    between atoms: C_14  and  C_15
REMARK    9  A    between atoms: C_15  and  C_16
REMARK   10  A    between atoms: C_19  and  O_20
REMARK                            x       y       z     vdW  Elec       q    Type
REMARK                         _______ _______ _______ _____ _____    ______ ____
ROOT
ATOM      1  O   UNL     1      55.750 -23.287  26.175  0.00  0.00    +0.000 OA
ATOM      2  C   UNL     1      55.283 -24.399  25.775  0.00  0.00    +0.000 C 
ENDROOT
BRANCH   2   3
ATOM      3  C   UNL     1      53.997 -24.943  26.373  0.00  0.00    +0.000 C 
BRANCH   3   4
ATOM      4  C   UNL     1      54.209 -25.241  27.848  0.00  0.00    +0.000 C 
BRANCH   4   5
ATOM      5  C   UNL     1      54.725 -26.662  28.010  0.00  0.00    +0.000 C 
BRANCH   5   6
ATOM      6  C   UNL     1      56.182 -26.625  28.442  0.00  0.00    +0.000 C 
BRANCH   6   7
ATOM      7  C   UNL     1      56.749 -28.036  28.436  0.00  0.00    +0.000 A 
ATOM      8  C   UNL     1      58.100 -28.151  28.674  0.00  0.00    +0.000 A 
ATOM      9  C   UNL     1      58.702 -29.405  28.824  0.00  0.00    +0.000 A 
ATOM     10  C   UNL     1      57.870 -30.541  28.739  0.00  0.00    +0.000 A 
ATOM     11  C   UNL     1      56.529 -30.414  28.471  0.00  0.00    +0.000 A 
ATOM     12  C   UNL     1      55.967 -29.160  28.329  0.00  0.00    +0.000 A 
BRANCH  10  13
ATOM     13  O   UNL     1      58.359 -31.793  28.894  0.00  0.00    +0.000 OA
ATOM     14  H   UNL     1      59.309 -31.991  28.653  0.00  0.00    +0.000 HD
ENDBRANCH  10  13
ENDBRANCH   6   7
ENDBRANCH   5   6
ENDBRANCH   4   5
ENDBRANCH   3   4
ENDBRANCH   2   3
BRANCH   2  15
ATOM     15  C   UNL     1      56.012 -25.186  24.698  0.00  0.00    +0.000 C 
BRANCH  15  16
ATOM     16  C   UNL     1      55.210 -26.429  24.348  0.00  0.00    +0.000 C 
BRANCH  16  17
ATOM     17  C   UNL     1      56.066 -27.664  24.573  0.00  0.00    +0.000 A 
ATOM     18  C   UNL     1      57.410 -27.528  24.839  0.00  0.00    +0.000 A 
ATOM     19  C   UNL     1      58.219 -28.649  25.059  0.00  0.00    +0.000 A 
ATOM     20  C   UNL     1      57.604 -29.916  25.017  0.00  0.00    +0.000 A 
ATOM     21  C   UNL     1      56.267 -30.041  24.722  0.00  0.00    +0.000 A 
ATOM     22  C   UNL     1      55.498 -28.914  24.509  0.00  0.00    +0.000 A 
BRANCH  20  23
ATOM     23  O   UNL     1      58.301 -31.052  25.243  0.00  0.00    +0.000 OA
ATOM     24  H   UNL     1      59.296 -31.058  25.136  0.00  0.00    +0.000 HD
ENDBRANCH  20  23
ENDBRANCH  16  17
ENDBRANCH  15  16
ENDBRANCH   2  15
TORSDOF 10
ENDMDL
MODEL 4
REMARK VINA RESULT:    -4.572      3.167      6.418
REMARK INTER + INTRA:         -10.157
REMARK INTER:                  -7.431
REMARK INTRA:                  -2.725
REMARK UNBOUND:                -3.180
REMARK  Name = 
REMARK  10 active torsions:
REMARK  status: ('A' for Active; 'I' for Inactive)
REMARK    1  A    between atoms: C_2  and  C_3
REMARK    2  A    between atoms: C_2  and  C_14
REMARK    3  A    between atoms: C_3  and  C_4
REMARK    4  A    between atoms: C_4  and  C_5
REMARK    5  A    between atoms: C_5  and  C_6
REMARK    6  A    between atoms: C_6  and  C_7
REMARK    7  A    between atoms: C_10  and  O_11
REMARK    8  A    between atoms: C_14  and  C_15
REMARK    9  A    between atoms: C_15  and  C_16
REMARK   10  A    between atoms: C_19  and  O_20
REMARK                            x       y       z     vdW  Elec       q    Type
REMARK                         _______ _______ _______ _____ _____    ______ ____
ROOT
ATOM      1  O   UNL     1      54.999 -33.683  25.611  0.00  0.00    +0.000 OA
ATOM      2  C   UNL     1      55.967 -33.282  26.330  0.00  0.00    +0.000 C 
ENDROOT
BRANCH   2   3
ATOM      3  C   UNL     1      57.399 -33.543  25.892  0.00  0.00    +0.000 C 
BRANCH   3   4
ATOM      4  C   UNL     1      57.626 -32.942  24.515  0.00  0.00    +0.000 C 
BRANCH   4   5
ATOM      5  C   UNL     1      57.666 -31.425  24.625  0.00  0.00    +0.000 C 
BRANCH   5   6
ATOM      6  C   UNL     1      56.396 -30.841  24.028  0.00  0.00    +0.000 C 
BRANCH   6   7
ATOM      7  C   UNL     1      56.399 -29.332  24.207  0.00  0.00    +0.000 A 
ATOM      8  C   UNL     1      57.592 -28.766  24.594  0.00  0.00    +0.000 A 
ATOM      9  C   UNL     1      57.745 -27.376  24.658  0.00  0.00    +0.000 A 
ATOM     10  C   UNL     1      56.637 -26.582  24.296  0.00  0.00    +0.000 A 
ATOM     11  C   UNL     1      55.442 -27.159  23.941  0.00  0.00    +0.000 A 
ATOM     12  C   UNL     1      55.327 -28.535  23.888  0.00  0.00    +0.000 A 
BRANCH  10  13
ATOM     13  O   UNL     1      56.699 -25.230  24.305  0.00  0.00    +0.000 OA
ATOM     14  H   UNL     1      56.794 -24.741  25.172  0.00  0.00    +0.000 HD
ENDBRANCH  10  13
ENDBRANCH   6   7
ENDBRANCH   5   6
ENDBRANCH   4   5
ENDBRANCH   3   4
ENDBRANCH   2   3
BRANCH   2  15
ATOM     15  C   UNL     1      55.694 -32.541  27.628  0.00  0.00    +0.000 C 
BRANCH  15  16
ATOM     16  C   UNL     1      57.003 -32.023  28.202  0.00  0.00    +0.000 C 
BRANCH  16  17
ATOM     17  C   UNL     1      57.011 -30.504  28.154  0.00  0.00    +0.000 A 
ATOM     18  C   UNL     1      55.851 -29.820  27.863  0.00  0.00    +0.000 A 
ATOM     19  C   UNL     1      55.829 -28.421  27.823  0.00  0.00    +0.000 A 
ATOM     20  C   UNL     1      57.031 -27.741  28.110  0.00  0.00    +0.000 A 
ATOM     21  C   UNL     1      58.188 -28.435  28.371  0.00  0.00    +0.000 A 
ATOM     22  C   UNL     1      58.174 -29.816  28.401  0.00  0.00    +0.000 A 
BRANCH  20  23
ATOM     23  O   UNL     1      57.097 -26.391  28.119  0.00  0.00    +0.000 OA
ATOM     24  H   UNL     1      56.431 -25.853  27.601  0.00  0.00    +0.000 HD
ENDBRANCH  20  23
ENDBRANCH  16  17
ENDBRANCH  15  16
ENDBRANCH   2  15
TORSDOF 10
ENDMDL
MODEL 5
REMARK VINA RESULT:    -4.472      2.823      5.805
REMARK INTER + INTRA:         -10.005
REMARK INTER:                  -6.826
REMARK INTRA:                  -3.180
REMARK UNBOUND:                -3.180
REMARK  Name = 
REMARK  10 active torsions:
REMARK  status: ('A' for Active; 'I' for Inactive)
REMARK    1  A    between atoms: C_2  and  C_3
REMARK    2  A    between atoms: C_2  and  C_14
REMARK    3  A    between atoms: C_3  and  C_4
REMARK    4  A    between atoms: C_4  and  C_5
REMARK    5  A    between atoms: C_5  and  C_6
REMARK    6  A    between atoms: C_6  and  C_7
REMARK    7  A    between atoms: C_10  and  O_11
REMARK    8  A    between atoms: C_14  and  C_15
REMARK    9  A    between atoms: C_15  and  C_16
REMARK   10  A    between atoms: C_19  and  O_20
REMARK                            x       y       z     vdW  Elec       q    Type
REMARK                         _______ _______ _______ _____ _____    ______ ____
ROOT
ATOM      1  O   UNL     1      57.593 -32.091  28.532  0.00  0.00    +0.000 OA
ATOM      2  C   UNL     1      56.830 -31.409  27.778  0.00  0.00    +0.000 C 
ENDROOT
BRANCH   2   3
ATOM      3  C   UNL     1      56.171 -32.060  26.573  0.00  0.00    +0.000 C 
BRANCH   3   4
ATOM      4  C   UNL     1      57.234 -32.428  25.551  0.00  0.00    +0.000 C 
BRANCH   4   5
ATOM      5  C   UNL     1      57.101 -31.525  24.335  0.00  0.00    +0.000 C 
BRANCH   5   6
ATOM      6  C   UNL     1      55.788 -31.818  23.628  0.00  0.00    +0.000 C 
BRANCH   6   7
ATOM      7  C   UNL     1      54.979 -30.537  23.509  0.00  0.00    +0.000 A 
ATOM      8  C   UNL     1      55.485 -29.572  22.667  0.00  0.00    +0.000 A 
ATOM      9  C   UNL     1      54.757 -28.412  22.379  0.00  0.00    +0.000 A 
ATOM     10  C   UNL     1      53.483 -28.279  22.967  0.00  0.00    +0.000 A 
ATOM     11  C   UNL     1      53.002 -29.236  23.829  0.00  0.00    +0.000 A 
ATOM     12  C   UNL     1      53.747 -30.368  24.092  0.00  0.00    +0.000 A 
BRANCH  10  13
ATOM     13  O   UNL     1      52.698 -27.204  22.728  0.00  0.00    +0.000 OA
ATOM     14  H   UNL     1      53.086 -26.388  22.298  0.00  0.00    +0.000 HD
ENDBRANCH  10  13
ENDBRANCH   6   7
ENDBRANCH   5   6
ENDBRANCH   4   5
ENDBRANCH   3   4
ENDBRANCH   2   3
BRANCH   2  15
ATOM     15  C   UNL     1      56.577 -29.941  28.080  0.00  0.00    +0.000 C 
BRANCH  15  16
ATOM     16  C   UNL     1      55.411 -29.444  27.240  0.00  0.00    +0.000 C 
BRANCH  16  17
ATOM     17  C   UNL     1      55.886 -28.325  26.328  0.00  0.00    +0.000 A 
ATOM     18  C   UNL     1      55.086 -27.224  26.119  0.00  0.00    +0.000 A 
ATOM     19  C   UNL     1      55.503 -26.175  25.292  0.00  0.00    +0.000 A 
ATOM     20  C   UNL     1      56.777 -26.280  24.697  0.00  0.00    +0.000 A 
ATOM     21  C   UNL     1      57.555 -27.397  24.890  0.00  0.00    +0.000 A 
ATOM     22  C   UNL     1      57.112 -28.414  25.713  0.00  0.00    +0.000 A 
BRANCH  20  23
ATOM     23  O   UNL     1      57.273 -25.304  23.904  0.00  0.00    +0.000 OA
ATOM     24  H   UNL     1      57.084 -25.313  22.922  0.00  0.00    +0.000 HD
ENDBRANCH  20  23
ENDBRANCH  16  17
ENDBRANCH  15  16
ENDBRANCH   2  15
TORSDOF 10
ENDMDL
