REMARK  Name = 
REMARK  5 active torsions:
REMARK  status: ('A' for Active; 'I' for Inactive)
REMARK    1  A    between atoms: C_1  and  O_2
REMARK    2  A    between atoms: O_2  and  C_3
REMARK    3  A    between atoms: C_5  and  O_6
REMARK    4  A    between atoms: O_6  and  C_7
REMARK    5  A    between atoms: C_9  and  C_10
REMARK                            x       y       z     vdW  Elec       q    Type
REMARK                         _______ _______ _______ _____ _____    ______ ____
ROOT
ATOM      1  C   UNL     1       4.107   2.618   3.468  0.00  0.00    +0.000 A 
ATOM      2  C   UNL     1       5.021   1.758   2.762  0.00  0.00    +0.000 A 
ATOM      3  C   UNL     1       4.543   0.927   1.687  0.00  0.00    +0.000 A 
ATOM      4  O   UNL     1       5.350   0.167   1.064  0.00  0.00    +0.000 OA
ATOM      5  C   UNL     1       3.075   0.959   1.296  0.00  0.00    +0.000 A 
ATOM      6  C   UNL     1       2.406  -0.233   1.069  0.00  0.00    +0.000 A 
ATOM      7  C   UNL     1       1.150  -0.073   0.436  0.00  0.00    +0.000 A 
ATOM      8  C   UNL     1       0.479   1.063   0.379  0.00  0.00    +0.000 A 
ATOM      9  C   UNL     1       1.179   2.198   0.681  0.00  0.00    +0.000 A 
ATOM     10  C   UNL     1       2.457   2.129   1.180  0.00  0.00    +0.000 A 
ATOM     11  O   UNL     1       4.553   3.394   4.472  0.00  0.00    +0.000 OA
ENDROOT
BRANCH   1  16
ATOM     12  C   UNL     1       0.935   1.930   1.632  0.00  0.00    +0.000 A 
ATOM     13  C   UNL     1      -0.003   2.691   2.310  0.00  0.00    +0.000 A 
ATOM     14  C   UNL     1       0.557   3.575   3.263  0.00  0.00    +0.000 A 
ATOM     15  C   UNL     1       1.779   3.471   3.754  0.00  0.00    +0.000 A 
ATOM     16  C   UNL     1       2.638   2.650   3.077  0.00  0.00    +0.000 A 
ATOM     17  C   UNL     1       2.193   1.854   2.050  0.00  0.00    +0.000 A 
BRANCH  12  19
ATOM     18  C   UNL     1       1.065   0.038   0.065  0.00  0.00    +0.000 C 
ATOM     19  O   UNL     1       0.592   1.338   0.388  0.00  0.00    +0.000 OA
ENDBRANCH  12  19
BRANCH  14  20
ATOM     20  O   UNL     1      -0.251   4.648   3.724  0.00  0.00    +0.000 OA
ATOM     21  C   UNL     1       0.263   5.563   4.680  0.00  0.00    +0.000 C 
ENDBRANCH  14  20
ENDBRANCH   1  16
TORSDOF 3
