REMARK  Name = 
REMARK  10 active torsions:
REMARK  status: ('A' for Active; 'I' for Inactive)
REMARK    1  A    between atoms: C_1  and  O_2
REMARK    2  A    between atoms: O_2  and  C_3
REMARK    3  A    between atoms: C_5  and  C_6
REMARK    4  A    between atoms: C_7  and  C_8
REMARK    5  A    between atoms: C_8  and  C_10
REMARK    6  A    between atoms: C_10  and  C_11
REMARK    7  A    between atoms: C_11  and  C_12
REMARK    8  A    between atoms: C_12  and  C_13
REMARK    9  A    between atoms: C_13  and  C_14
REMARK   10  A    between atoms: C_22  and  O_23
REMARK                            x       y       z     vdW  Elec       q    Type
REMARK                         _______ _______ _______ _____ _____    ______ ____
ROOT
ATOM      1  C   UNL     1       1.179  -6.208   0.041  0.00  0.00    +0.000 C 
ATOM      2  C   UNL     1      -0.088  -6.383   0.503  0.00  0.00    +0.000 C 
ENDROOT
BRANCH   1   5
ATOM      3  C   UNL     1       1.417  -2.438  -0.078  0.00  0.00    +0.000 A 
ATOM      4  C   UNL     1       0.933  -3.709   0.123  0.00  0.00    +0.000 A 
ATOM      5  C   UNL     1       1.725  -4.804  -0.163  0.00  0.00    +0.000 A 
ATOM      6  C   UNL     1       3.006  -4.630  -0.630  0.00  0.00    +0.000 A 
ATOM      7  C   UNL     1       3.512  -3.361  -0.807  0.00  0.00    +0.000 A 
ATOM      8  C   UNL     1       2.737  -2.230  -0.528  0.00  0.00    +0.000 A 
BRANCH   3  10
ATOM      9  C   UNL     1       1.060  -0.079   0.007  0.00  0.00    +0.000 C 
ATOM     10  O   UNL     1       0.587  -1.405   0.194  0.00  0.00    +0.000 OA
ENDBRANCH   3  10
BRANCH   8  11
ATOM     11  O   UNL     1       3.260  -0.920  -0.692  0.00  0.00    +0.000 OA
ATOM     12  H   UNL     1       2.690  -0.125  -0.487  0.00  0.00    +0.000 HD
ENDBRANCH   8  11
ENDBRANCH   1   5
BRANCH   2  13
ATOM     13  C   UNL     1      -0.635  -7.787   0.707  0.00  0.00    +0.000 C 
ATOM     14  O   UNL     1      -1.819  -7.951   1.139  0.00  0.00    +0.000 OA
BRANCH  13  15
ATOM     15  C   UNL     1       0.234  -8.994   0.394  0.00  0.00    +0.000 C 
BRANCH  15  16
ATOM     16  C   UNL     1       0.633  -8.965  -1.073  0.00  0.00    +0.000 C 
BRANCH  16  17
ATOM     17  C   UNL     1       1.411  -7.691  -1.361  0.00  0.00    +0.000 C 
BRANCH  17  18
ATOM     18  C   UNL     1       2.660  -7.654  -0.495  0.00  0.00    +0.000 C 
BRANCH  18  19
ATOM     19  C   UNL     1       3.529  -8.861  -0.808  0.00  0.00    +0.000 A 
ATOM     20  C   UNL     1       2.933 -10.112  -0.832  0.00  0.00    +0.000 A 
ATOM     21  C   UNL     1       3.854 -11.186  -0.846  0.00  0.00    +0.000 A 
ATOM     22  C   UNL     1       5.130 -11.074  -1.169  0.00  0.00    +0.000 A 
ATOM     23  C   UNL     1       5.643  -9.807  -1.194  0.00  0.00    +0.000 A 
ATOM     24  C   UNL     1       4.825  -8.711  -1.057  0.00  0.00    +0.000 A 
ENDBRANCH  18  19
ENDBRANCH  17  18
ENDBRANCH  16  17
ENDBRANCH  15  16
ENDBRANCH  13  15
ENDBRANCH   2  13
TORSDOF 9
