REMARK  Name = 
REMARK  3 active torsions:
REMARK  status: ('A' for Active; 'I' for Inactive)
REMARK    1  A    between atoms: C_1  and  O_2
REMARK    2  A    between atoms: O_2  and  C_3
REMARK    3  A    between atoms: C_12  and  C_14
REMARK                            x       y       z     vdW  Elec       q    Type
REMARK                         _______ _______ _______ _____ _____    ______ ____
ROOT
ATOM      1  C   UNL     1       0.952  -2.462   0.410  0.00  0.00    +0.000 A 
ATOM      2  C   UNL     1       0.041  -3.495   0.467  0.00  0.00    +0.000 A 
ATOM      3  C   UNL     1       0.445  -4.793   0.187  0.00  0.00    +0.000 A 
ATOM      4  C   UNL     1       1.756  -5.074  -0.149  0.00  0.00    +0.000 A 
ATOM      5  C   UNL     1       2.653  -4.018  -0.193  0.00  0.00    +0.000 A 
ATOM      6  C   UNL     1       2.287  -2.713   0.071  0.00  0.00    +0.000 A 
ATOM      7  C   UNL     1       3.284  -1.616   0.007  0.00  0.00    +0.000 A 
ATOM      8  O   UNL     1       2.920  -0.464   0.251  0.00  0.00    +0.000 OA
ATOM      9  C   UNL     1       4.638  -2.017  -0.319  0.00  0.00    +0.000 A 
ATOM     10  C   UNL     1       4.911  -3.388  -0.522  0.00  0.00    +0.000 A 
ATOM     11  O   UNL     1       3.959  -4.344  -0.508  0.00  0.00    +0.000 OA
ENDROOT
BRANCH  10  12
ATOM     12  C   UNL     1       6.351  -3.807  -0.769  0.00  0.00    +0.000 A 
ATOM     13  C   UNL     1       6.676  -4.445  -1.955  0.00  0.00    +0.000 A 
ATOM     14  C   UNL     1       7.960  -5.041  -1.951  0.00  0.00    +0.000 A 
ATOM     15  C   UNL     1       8.920  -4.747  -1.093  0.00  0.00    +0.000 A 
ATOM     16  C   UNL     1       8.545  -4.056   0.025  0.00  0.00    +0.000 A 
ATOM     17  C   UNL     1       7.272  -3.555   0.153  0.00  0.00    +0.000 A 
ENDBRANCH  10  12
BRANCH   1  19
ATOM     18  C   UNL     1       1.082  -0.046  -0.033  0.00  0.00    +0.000 C 
ATOM     19  O   UNL     1       0.609  -1.128   0.756  0.00  0.00    +0.000 OA
ENDBRANCH   1  19
TORSDOF 2
