REMARK  Name = 
REMARK  5 active torsions:
REMARK  status: ('A' for Active; 'I' for Inactive)
REMARK    1  A    between atoms: C_1  and  O_2
REMARK    2  A    between atoms: O_2  and  C_3
REMARK    3  A    between atoms: C_6  and  O_7
REMARK    4  A    between atoms: O_7  and  C_8
REMARK    5  A    between atoms: C_9  and  C_10
REMARK                            x       y       z     vdW  Elec       q    Type
REMARK                         _______ _______ _______ _____ _____    ______ ____
ROOT
ATOM      1  C   UNL     1       3.758  -4.424  -1.217  0.00  0.00    +0.000 A 
ATOM      2  C   UNL     1       4.816  -3.464  -1.034  0.00  0.00    +0.000 A 
ATOM      3  C   UNL     1       4.519  -2.157  -0.506  0.00  0.00    +0.000 A 
ATOM      4  O   UNL     1       5.452  -1.310  -0.345  0.00  0.00    +0.000 OA
ATOM      5  C   UNL     1       3.089  -1.792  -0.142  0.00  0.00    +0.000 A 
ATOM      6  C   UNL     1       2.587  -0.559  -0.525  0.00  0.00    +0.000 A 
ATOM      7  C   UNL     1       1.374  -0.210   0.113  0.00  0.00    +0.000 A 
ATOM      8  C   UNL     1       0.578  -1.066   0.728  0.00  0.00    +0.000 A 
ATOM      9  C   UNL     1       1.111  -2.291   1.019  0.00  0.00    +0.000 A 
ATOM     10  C   UNL     1       2.347  -2.656   0.541  0.00  0.00    +0.000 A 
ATOM     11  O   UNL     1       4.036  -5.645  -1.710  0.00  0.00    +0.000 OA
ENDROOT
BRANCH   1  16
ATOM     12  C   UNL     1       0.832  -2.498   0.059  0.00  0.00    +0.000 A 
ATOM     13  C   UNL     1      -0.235  -3.356  -0.149  0.00  0.00    +0.000 A 
ATOM     14  C   UNL     1       0.146  -4.660  -0.544  0.00  0.00    +0.000 A 
ATOM     15  C   UNL     1       1.332  -4.978  -1.030  0.00  0.00    +0.000 A 
ATOM     16  C   UNL     1       2.329  -4.059  -0.852  0.00  0.00    +0.000 A 
ATOM     17  C   UNL     1       2.056  -2.810  -0.349  0.00  0.00    +0.000 A 
BRANCH  12  19
ATOM     18  C   UNL     1       0.962  -0.042   0.083  0.00  0.00    +0.000 C 
ATOM     19  O   UNL     1       0.489  -1.254   0.652  0.00  0.00    +0.000 OA
ENDBRANCH  12  19
BRANCH  15  20
ATOM     20  O   UNL     1       1.560  -6.209  -1.700  0.00  0.00    +0.000 OA
ATOM     21  C   UNL     1       2.852  -6.513  -2.207  0.00  0.00    +0.000 C 
ENDBRANCH  15  20
ENDBRANCH   1  16
TORSDOF 3
