REMARK  Name = 
REMARK  3 active torsions:
REMARK  status: ('A' for Active; 'I' for Inactive)
REMARK    1  A    between atoms: C_1  and  O_2
REMARK    2  A    between atoms: O_2  and  C_3
REMARK    3  A    between atoms: C_6  and  C_7
REMARK                            x       y       z     vdW  Elec       q    Type
REMARK                         _______ _______ _______ _____ _____    ______ ____
ROOT
ATOM      1  C   UNL     1       1.664  -4.868  -4.244  0.00  0.00    +0.000 A 
ATOM      2  C   UNL     1       2.978  -4.946  -4.828  0.00  0.00    +0.000 A 
ATOM      3  C   UNL     1       4.062  -4.181  -4.267  0.00  0.00    +0.000 A 
ATOM      4  O   UNL     1       5.222  -4.250  -4.783  0.00  0.00    +0.000 OA
ATOM      5  C   UNL     1       3.819  -3.291  -3.059  0.00  0.00    +0.000 A 
ATOM      6  C   UNL     1       4.439  -2.057  -2.960  0.00  0.00    +0.000 A 
ATOM      7  C   UNL     1       4.490  -1.545  -1.642  0.00  0.00    +0.000 A 
ATOM      8  C   UNL     1       3.735  -1.968  -0.644  0.00  0.00    +0.000 A 
ATOM      9  C   UNL     1       3.094  -3.162  -0.831  0.00  0.00    +0.000 A 
ATOM     10  C   UNL     1       3.108  -3.788  -2.054  0.00  0.00    +0.000 A 
ATOM     11  O   UNL     1       0.652  -5.583  -4.768  0.00  0.00    +0.000 OA
ENDROOT
BRANCH   1  15
ATOM     12  C   UNL     1       0.926  -2.191  -0.999  0.00  0.00    +0.000 A 
ATOM     13  C   UNL     1      -0.145  -2.863  -1.563  0.00  0.00    +0.000 A 
ATOM     14  C   UNL     1       0.231  -3.880  -2.473  0.00  0.00    +0.000 A 
ATOM     15  C   UNL     1       1.421  -3.978  -3.036  0.00  0.00    +0.000 A 
ATOM     16  C   UNL     1       2.423  -3.236  -2.475  0.00  0.00    +0.000 A 
ATOM     17  C   UNL     1       2.154  -2.316  -1.490  0.00  0.00    +0.000 A 
BRANCH  12  19
ATOM     18  C   UNL     1       1.057   0.071  -0.042  0.00  0.00    +0.000 C 
ATOM     19  O   UNL     1       0.583  -1.266   0.022  0.00  0.00    +0.000 OA
ENDBRANCH  12  19
ENDBRANCH   1  15
TORSDOF 2
