REMARK  Name = 
REMARK  6 active torsions:
REMARK  status: ('A' for Active; 'I' for Inactive)
REMARK    1  A    between atoms: C_1  and  O_2
REMARK    2  A    between atoms: O_2  and  C_3
REMARK    3  A    between atoms: C_5  and  C_6
REMARK    4  A    between atoms: C_7  and  C_8
REMARK    5  A    between atoms: C_15  and  O_16
REMARK    6  A    between atoms: O_16  and  C_17
REMARK                            x       y       z     vdW  Elec       q    Type
REMARK                         _______ _______ _______ _____ _____    ______ ____
ROOT
ATOM      1  C   UNL     1       0.897   2.371   0.237  0.00  0.00    +0.000 A 
ATOM      2  C   UNL     1      -0.035   3.383   0.393  0.00  0.00    +0.000 A 
ATOM      3  C   UNL     1       0.531   4.640   0.713  0.00  0.00    +0.000 A 
ATOM      4  C   UNL     1       1.754   4.813   1.180  0.00  0.00    +0.000 A 
ATOM      5  C   UNL     1       2.608   3.752   1.058  0.00  0.00    +0.000 A 
ATOM      6  C   UNL     1       2.156   2.527   0.628  0.00  0.00    +0.000 A 
ENDROOT
BRANCH   1   8
ATOM      7  C   UNL     1       1.027  -0.066  -0.070  0.00  0.00    +0.000 C 
ATOM      8  O   UNL     1       0.554   1.203  -0.495  0.00  0.00    +0.000 OA
ENDBRANCH   1   8
BRANCH   3   9
ATOM      9  C   UNL     1      -0.327   5.877   0.503  0.00  0.00    +0.000 C 
ATOM     10  C   UNL     1      -1.594   5.752   0.024  0.00  0.00    +0.000 C 
BRANCH  10  11
ATOM     11  C   UNL     1      -2.453   6.989  -0.186  0.00  0.00    +0.000 A 
ATOM     12  C   UNL     1      -3.770   6.974   0.242  0.00  0.00    +0.000 A 
ATOM     13  C   UNL     1      -4.546   8.047  -0.258  0.00  0.00    +0.000 A 
ATOM     14  C   UNL     1      -4.048   9.157  -0.771  0.00  0.00    +0.000 A 
ATOM     15  C   UNL     1      -2.724   9.129  -1.110  0.00  0.00    +0.000 A 
ATOM     16  C   UNL     1      -1.930   8.060  -0.772  0.00  0.00    +0.000 A 
ENDBRANCH  10  11
ENDBRANCH   3   9
BRANCH   5  17
ATOM     17  O   UNL     1       3.981   3.917   1.379  0.00  0.00    +0.000 OA
ATOM     18  C   UNL     1       4.876   2.822   1.256  0.00  0.00    +0.000 C 
ENDBRANCH   5  17
TORSDOF 4
