REMARK  Name = 
REMARK  7 active torsions:
REMARK  status: ('A' for Active; 'I' for Inactive)
REMARK    1  A    between atoms: C_1  and  O_2
REMARK    2  A    between atoms: O_2  and  C_3
REMARK    3  A    between atoms: C_5  and  C_6
REMARK    4  A    between atoms: C_7  and  C_8
REMARK    5  A    between atoms: C_8  and  C_10
REMARK    6  A    between atoms: C_13  and  O_14
REMARK    7  A    between atoms: C_19  and  O_20
REMARK                            x       y       z     vdW  Elec       q    Type
REMARK                         _______ _______ _______ _____ _____    ______ ____
ROOT
ATOM      1  C   UNL     1      -2.829   4.685  -1.238  0.00  0.00    +0.000 C 
ATOM      2  C   UNL     1      -1.942   5.677  -0.959  0.00  0.00    +0.000 C 
ENDROOT
BRANCH   1   5
ATOM      3  C   UNL     1      -0.735   1.605  -0.595  0.00  0.00    +0.000 A 
ATOM      4  C   UNL     1      -1.125   2.919  -0.699  0.00  0.00    +0.000 A 
ATOM      5  C   UNL     1      -2.409   3.230  -1.105  0.00  0.00    +0.000 A 
ATOM      6  C   UNL     1      -3.307   2.230  -1.388  0.00  0.00    +0.000 A 
ATOM      7  C   UNL     1      -2.936   0.909  -1.259  0.00  0.00    +0.000 A 
ATOM      8  C   UNL     1      -1.645   0.559  -0.850  0.00  0.00    +0.000 A 
BRANCH   3  10
ATOM      9  C   UNL     1       1.014   0.028  -0.095  0.00  0.00    +0.000 C 
ATOM     10  O   UNL     1       0.541   1.361  -0.219  0.00  0.00    +0.000 OA
ENDBRANCH   3  10
BRANCH   8  11
ATOM     11  O   UNL     1      -1.265  -0.800  -0.699  0.00  0.00    +0.000 OA
ATOM     12  H   UNL     1      -0.337  -1.030  -0.406  0.00  0.00    +0.000 HD
ENDBRANCH   8  11
ENDBRANCH   1   5
BRANCH   2  13
ATOM     13  C   UNL     1      -2.362   7.132  -1.092  0.00  0.00    +0.000 C 
ATOM     14  O   UNL     1      -1.533   8.059  -0.831  0.00  0.00    +0.000 OA
BRANCH  13  15
ATOM     15  C   UNL     1      -3.773   7.477  -1.538  0.00  0.00    +0.000 A 
ATOM     16  C   UNL     1      -4.845   6.809  -0.989  0.00  0.00    +0.000 A 
ATOM     17  C   UNL     1      -6.157   7.117  -1.366  0.00  0.00    +0.000 A 
ATOM     18  C   UNL     1      -6.340   8.146  -2.312  0.00  0.00    +0.000 A 
ATOM     19  C   UNL     1      -5.261   8.786  -2.874  0.00  0.00    +0.000 A 
ATOM     20  C   UNL     1      -3.978   8.457  -2.480  0.00  0.00    +0.000 A 
BRANCH  18  21
ATOM     21  O   UNL     1      -7.572   8.528  -2.717  0.00  0.00    +0.000 OA
ATOM     22  H   UNL     1      -8.384   8.088  -2.333  0.00  0.00    +0.000 HD
ENDBRANCH  18  21
ENDBRANCH  13  15
ENDBRANCH   2  13
TORSDOF 6
