REMARK  Name = 
REMARK  8 active torsions:
REMARK  status: ('A' for Active; 'I' for Inactive)
REMARK    1  A    between atoms: C_1  and  O_2
REMARK    2  A    between atoms: O_2  and  C_3
REMARK    3  A    between atoms: C_6  and  C_7
REMARK    4  A    between atoms: C_8  and  C_9
REMARK    5  A    between atoms: C_9  and  C_11
REMARK    6  A    between atoms: C_14  and  O_15
REMARK    7  A    between atoms: O_15  and  C_16
REMARK    8  A    between atoms: C_18  and  O_19
REMARK                            x       y       z     vdW  Elec       q    Type
REMARK                         _______ _______ _______ _____ _____    ______ ____
ROOT
ATOM      1  C   UNL     1       1.400  -0.448  -8.772  0.00  0.00    +0.000 C 
ATOM      2  O   UNL     1       0.529  -0.623  -9.680  0.00  0.00    +0.000 OA
ENDROOT
BRANCH   1   3
ATOM      3  C   UNL     1       2.817  -0.042  -9.146  0.00  0.00    +0.000 A 
ATOM      4  C   UNL     1       3.016   0.961 -10.081  0.00  0.00    +0.000 A 
ATOM      5  C   UNL     1       4.348   1.048 -10.552  0.00  0.00    +0.000 A 
ATOM      6  C   UNL     1       5.393   0.515  -9.947  0.00  0.00    +0.000 A 
ATOM      7  C   UNL     1       5.127  -0.420  -8.985  0.00  0.00    +0.000 A 
ATOM      8  C   UNL     1       3.840  -0.655  -8.564  0.00  0.00    +0.000 A 
BRANCH   6   9
ATOM      9  O   UNL     1       6.722   0.892 -10.276  0.00  0.00    +0.000 OA
ATOM     10  C   UNL     1       7.818   0.293  -9.601  0.00  0.00    +0.000 C 
ENDBRANCH   6   9
BRANCH   8  11
ATOM     11  O   UNL     1       3.603  -1.562  -7.497  0.00  0.00    +0.000 OA
ATOM     12  H   UNL     1       2.669  -1.736  -7.188  0.00  0.00    +0.000 HD
ENDBRANCH   8  11
ENDBRANCH   1   3
BRANCH   1  14
ATOM     13  C   UNL     1       1.959  -0.457  -6.340  0.00  0.00    +0.000 C 
ATOM     14  C   UNL     1       1.026  -0.644  -7.312  0.00  0.00    +0.000 C 
BRANCH  13  18
ATOM     15  C   UNL     1       0.847  -0.779  -2.229  0.00  0.00    +0.000 A 
ATOM     16  C   UNL     1      -0.137  -0.908  -3.196  0.00  0.00    +0.000 A 
ATOM     17  C   UNL     1       0.366  -1.005  -4.515  0.00  0.00    +0.000 A 
ATOM     18  C   UNL     1       1.585  -0.653  -4.880  0.00  0.00    +0.000 A 
ATOM     19  C   UNL     1       2.493  -0.474  -3.873  0.00  0.00    +0.000 A 
ATOM     20  C   UNL     1       2.102  -0.496  -2.556  0.00  0.00    +0.000 A 
BRANCH  15  22
ATOM     21  C   UNL     1       0.977   0.011   0.097  0.00  0.00    +0.000 C 
ATOM     22  O   UNL     1       0.504  -0.927  -0.859  0.00  0.00    +0.000 OA
ENDBRANCH  15  22
ENDBRANCH  13  18
ENDBRANCH   1  14
TORSDOF 6
