REMARK  Name = 
REMARK  8 active torsions:
REMARK  status: ('A' for Active; 'I' for Inactive)
REMARK    1  A    between atoms: C_1  and  O_2
REMARK    2  A    between atoms: O_2  and  C_3
REMARK    3  A    between atoms: C_6  and  C_7
REMARK    4  A    between atoms: C_8  and  C_9
REMARK    5  A    between atoms: C_9  and  C_11
REMARK    6  A    between atoms: C_14  and  O_15
REMARK    7  A    between atoms: O_15  and  C_16
REMARK    8  A    between atoms: C_18  and  O_19
REMARK                            x       y       z     vdW  Elec       q    Type
REMARK                         _______ _______ _______ _____ _____    ______ ____
ROOT
ATOM      1  C   UNL     1       1.465   0.555  -8.781  0.00  0.00    +0.000 C 
ATOM      2  O   UNL     1       0.593   0.492  -9.704  0.00  0.00    +0.000 OA
ENDROOT
BRANCH   1   3
ATOM      3  C   UNL     1       2.885   0.989  -9.105  0.00  0.00    +0.000 A 
ATOM      4  C   UNL     1       3.094   2.090  -9.920  0.00  0.00    +0.000 A 
ATOM      5  C   UNL     1       4.426   2.220 -10.379  0.00  0.00    +0.000 A 
ATOM      6  C   UNL     1       5.466   1.612  -9.838  0.00  0.00    +0.000 A 
ATOM      7  C   UNL     1       5.192   0.576  -8.989  0.00  0.00    +0.000 A 
ATOM      8  C   UNL     1       3.904   0.305  -8.597  0.00  0.00    +0.000 A 
BRANCH   6   9
ATOM      9  O   UNL     1       6.798   2.014 -10.123  0.00  0.00    +0.000 OA
ATOM     10  C   UNL     1       7.889   1.334  -9.521  0.00  0.00    +0.000 C 
ENDBRANCH   6   9
BRANCH   8  11
ATOM     11  O   UNL     1       3.659  -0.715  -7.641  0.00  0.00    +0.000 OA
ATOM     12  H   UNL     1       2.723  -0.916  -7.352  0.00  0.00    +0.000 HD
ENDBRANCH   8  11
ENDBRANCH   1   3
BRANCH   1  14
ATOM     13  C   UNL     1       2.021   0.262  -6.365  0.00  0.00    +0.000 C 
ATOM     14  C   UNL     1       1.088   0.195  -7.353  0.00  0.00    +0.000 C 
BRANCH  13  18
ATOM     15  C   UNL     1       0.901  -0.522  -2.319  0.00  0.00    +0.000 A 
ATOM     16  C   UNL     1      -0.082  -0.531  -3.295  0.00  0.00    +0.000 A 
ATOM     17  C   UNL     1       0.421  -0.480  -4.616  0.00  0.00    +0.000 A 
ATOM     18  C   UNL     1       1.644  -0.098  -4.938  0.00  0.00    +0.000 A 
ATOM     19  C   UNL     1       2.552  -0.043  -3.917  0.00  0.00    +0.000 A 
ATOM     20  C   UNL     1       2.159  -0.213  -2.611  0.00  0.00    +0.000 A 
BRANCH  15  22
ATOM     21  C   UNL     1       1.031   0.070   0.065  0.00  0.00    +0.000 C 
ATOM     22  O   UNL     1       0.558  -0.784  -0.966  0.00  0.00    +0.000 OA
ENDBRANCH  15  22
ENDBRANCH  13  18
ENDBRANCH   1  14
TORSDOF 6
