REMARK  Name = 
REMARK  6 active torsions:
REMARK  status: ('A' for Active; 'I' for Inactive)
REMARK    1  A    between atoms: C_1  and  O_2
REMARK    2  A    between atoms: O_2  and  C_3
REMARK    3  A    between atoms: C_6  and  C_7
REMARK    4  A    between atoms: C_7  and  C_9
REMARK    5  A    between atoms: C_10  and  C_11
REMARK    6  A    between atoms: C_17  and  O_18
REMARK                            x       y       z     vdW  Elec       q    Type
REMARK                         _______ _______ _______ _____ _____    ______ ____
ROOT
ATOM      1  C   UNL     1       1.369  -2.432  -0.150  0.00  0.00    +0.000 A 
ATOM      2  C   UNL     1       0.898  -3.700   0.093  0.00  0.00    +0.000 A 
ATOM      3  C   UNL     1       1.666  -4.799  -0.240  0.00  0.00    +0.000 A 
ATOM      4  C   UNL     1       2.910  -4.632  -0.798  0.00  0.00    +0.000 A 
ATOM      5  C   UNL     1       3.405  -3.365  -1.020  0.00  0.00    +0.000 A 
ATOM      6  C   UNL     1       2.654  -2.231  -0.695  0.00  0.00    +0.000 A 
ENDROOT
BRANCH   1   8
ATOM      7  C   UNL     1       1.036  -0.075  -0.055  0.00  0.00    +0.000 C 
ATOM      8  O   UNL     1       0.563  -1.395   0.172  0.00  0.00    +0.000 OA
ENDBRANCH   1   8
BRANCH   4   9
ATOM      9  C   UNL     1       3.743  -5.847  -1.173  0.00  0.00    +0.000 C 
ATOM     10  O   UNL     1       3.288  -7.016  -0.969  0.00  0.00    +0.000 OA
BRANCH   9  11
ATOM     11  C   UNL     1       5.119  -5.664  -1.791  0.00  0.00    +0.000 C 
ATOM     12  C   UNL     1       5.606  -4.412  -2.009  0.00  0.00    +0.000 C 
BRANCH  12  13
ATOM     13  C   UNL     1       6.983  -4.229  -2.626  0.00  0.00    +0.000 A 
ATOM     14  C   UNL     1       7.856  -3.304  -2.080  0.00  0.00    +0.000 A 
ATOM     15  C   UNL     1       8.974  -3.017  -2.898  0.00  0.00    +0.000 A 
ATOM     16  C   UNL     1       9.383  -3.775  -3.900  0.00  0.00    +0.000 A 
ATOM     17  C   UNL     1       8.499  -4.717  -4.350  0.00  0.00    +0.000 A 
ATOM     18  C   UNL     1       7.326  -4.963  -3.678  0.00  0.00    +0.000 A 
ENDBRANCH  12  13
ENDBRANCH   9  11
ENDBRANCH   4   9
BRANCH   5  19
ATOM     19  O   UNL     1       4.697  -3.209  -1.587  0.00  0.00    +0.000 OA
ATOM     20  H   UNL     1       5.064  -2.293  -1.751  0.00  0.00    +0.000 HD
ENDBRANCH   5  19
TORSDOF 5
