REMARK  Name = 
REMARK  3 active torsions:
REMARK  status: ('A' for Active; 'I' for Inactive)
REMARK    1  A    between atoms: C_1  and  O_2
REMARK    2  A    between atoms: O_2  and  C_3
REMARK    3  A    between atoms: C_6  and  C_7
REMARK                            x       y       z     vdW  Elec       q    Type
REMARK                         _______ _______ _______ _____ _____    ______ ____
ROOT
ATOM      1  C   UNL     1       1.702  -6.291  -1.444  0.00  0.00    +0.000 A 
ATOM      2  C   UNL     1       3.013  -6.618  -1.942  0.00  0.00    +0.000 A 
ATOM      3  C   UNL     1       4.084  -5.662  -1.831  0.00  0.00    +0.000 A 
ATOM      4  O   UNL     1       5.241  -5.951  -2.271  0.00  0.00    +0.000 OA
ATOM      5  C   UNL     1       3.832  -4.308  -1.189  0.00  0.00    +0.000 A 
ATOM      6  C   UNL     1       4.414  -3.167  -1.716  0.00  0.00    +0.000 A 
ATOM      7  C   UNL     1       4.454  -2.076  -0.816  0.00  0.00    +0.000 A 
ATOM      8  C   UNL     1       3.716  -1.977   0.275  0.00  0.00    +0.000 A 
ATOM      9  C   UNL     1       3.112  -3.125   0.706  0.00  0.00    +0.000 A 
ATOM     10  C   UNL     1       3.140  -4.268  -0.056  0.00  0.00    +0.000 A 
ATOM     11  O   UNL     1       0.700  -7.183  -1.547  0.00  0.00    +0.000 OA
ENDROOT
BRANCH   1  15
ATOM     12  C   UNL     1       0.933  -2.402   0.148  0.00  0.00    +0.000 A 
ATOM     13  C   UNL     1      -0.129  -3.278  -0.010  0.00  0.00    +0.000 A 
ATOM     14  C   UNL     1       0.261  -4.599  -0.332  0.00  0.00    +0.000 A 
ATOM     15  C   UNL     1       1.449  -4.936  -0.801  0.00  0.00    +0.000 A 
ATOM     16  C   UNL     1       2.439  -4.002  -0.677  0.00  0.00    +0.000 A 
ATOM     17  C   UNL     1       2.159  -2.728  -0.244  0.00  0.00    +0.000 A 
BRANCH  12  19
ATOM     18  C   UNL     1       1.063   0.052   0.057  0.00  0.00    +0.000 C 
ATOM     19  O   UNL     1       0.590  -1.132   0.682  0.00  0.00    +0.000 OA
ENDBRANCH  12  19
ENDBRANCH   1  15
TORSDOF 2
