REMARK  Name = 
REMARK  9 active torsions:
REMARK  status: ('A' for Active; 'I' for Inactive)
REMARK    1  A    between atoms: C_1  and  O_2
REMARK    2  A    between atoms: O_2  and  C_3
REMARK    3  A    between atoms: C_6  and  C_7
REMARK    4  A    between atoms: C_7  and  C_9
REMARK    5  A    between atoms: C_10  and  C_11
REMARK    6  A    between atoms: C_17  and  O_18
REMARK    7  A    between atoms: O_18  and  C_19
REMARK    8  A    between atoms: C_20  and  O_21
REMARK    9  A    between atoms: O_21  and  C_22
REMARK                            x       y       z     vdW  Elec       q    Type
REMARK                         _______ _______ _______ _____ _____    ______ ____
ROOT
ATOM      1  C   UNL     1       0.786  -2.451  -0.191  0.00  0.00    +0.000 A 
ATOM      2  C   UNL     1      -0.288  -3.273  -0.492  0.00  0.00    +0.000 A 
ATOM      3  C   UNL     1       0.084  -4.530  -1.024  0.00  0.00    +0.000 A 
ATOM      4  C   UNL     1       1.268  -4.806  -1.538  0.00  0.00    +0.000 A 
ATOM      5  C   UNL     1       2.272  -3.920  -1.261  0.00  0.00    +0.000 A 
ATOM      6  C   UNL     1       2.009  -2.729  -0.628  0.00  0.00    +0.000 A 
ENDROOT
BRANCH   1   8
ATOM      7  C   UNL     1       0.916  -0.008   0.054  0.00  0.00    +0.000 C 
ATOM      8  O   UNL     1       0.443  -1.266   0.511  0.00  0.00    +0.000 OA
ENDBRANCH   1   8
BRANCH   4   9
ATOM      9  C   UNL     1       1.504  -6.041  -2.392  0.00  0.00    +0.000 C 
ATOM     10  O   UNL     1       0.546  -6.842  -2.628  0.00  0.00    +0.000 OA
BRANCH   9  11
ATOM     11  C   UNL     1       2.885  -6.318  -2.963  0.00  0.00    +0.000 C 
ATOM     12  C   UNL     1       3.910  -5.461  -2.711  0.00  0.00    +0.000 C 
BRANCH  12  13
ATOM     13  C   UNL     1       5.291  -5.738  -3.282  0.00  0.00    +0.000 A 
ATOM     14  C   UNL     1       6.401  -5.602  -2.464  0.00  0.00    +0.000 A 
ATOM     15  C   UNL     1       7.631  -5.604  -3.163  0.00  0.00    +0.000 A 
ATOM     16  C   UNL     1       7.791  -6.046  -4.397  0.00  0.00    +0.000 A 
ATOM     17  C   UNL     1       6.652  -6.225  -5.131  0.00  0.00    +0.000 A 
ATOM     18  C   UNL     1       5.412  -6.112  -4.550  0.00  0.00    +0.000 A 
ENDBRANCH  12  13
ENDBRANCH   9  11
ENDBRANCH   4   9
BRANCH   5  19
ATOM     19  O   UNL     1       3.606  -4.234  -1.633  0.00  0.00    +0.000 OA
ATOM     20  C   UNL     1       4.656  -3.322  -1.350  0.00  0.00    +0.000 C 
ENDBRANCH   5  19
BRANCH   6  21
ATOM     21  O   UNL     1       3.054  -1.786  -0.439  0.00  0.00    +0.000 OA
ATOM     22  C   UNL     1       2.789  -0.554   0.215  0.00  0.00    +0.000 C 
ENDBRANCH   6  21
TORSDOF 6
