REMARK  Name = 
REMARK  5 active torsions:
REMARK  status: ('A' for Active; 'I' for Inactive)
REMARK    1  A    between atoms: C_1  and  O_2
REMARK    2  A    between atoms: O_2  and  C_3
REMARK    3  A    between atoms: C_6  and  C_7
REMARK    4  A    between atoms: C_19  and  O_20
REMARK    5  A    between atoms: O_20  and  C_21
REMARK                            x       y       z     vdW  Elec       q    Type
REMARK                         _______ _______ _______ _____ _____    ______ ____
ROOT
ATOM      1  C   UNL     1       1.841  -6.442   0.302  0.00  0.00    +0.000 A 
ATOM      2  C   UNL     1       3.177  -6.803  -0.098  0.00  0.00    +0.000 A 
ATOM      3  C   UNL     1       4.175  -5.781  -0.282  0.00  0.00    +0.000 A 
ATOM      4  O   UNL     1       5.353  -6.100  -0.635  0.00  0.00    +0.000 OA
ATOM      5  C   UNL     1       3.818  -4.321  -0.054  0.00  0.00    +0.000 A 
ATOM      6  C   UNL     1       4.253  -3.376  -0.968  0.00  0.00    +0.000 A 
ATOM      7  C   UNL     1       4.143  -2.042  -0.509  0.00  0.00    +0.000 A 
ATOM      8  C   UNL     1       3.388  -1.658   0.504  0.00  0.00    +0.000 A 
ATOM      9  C   UNL     1       2.934  -2.647   1.332  0.00  0.00    +0.000 A 
ATOM     10  C   UNL     1       3.117  -3.972   1.018  0.00  0.00    +0.000 A 
ATOM     11  O   UNL     1       0.909  -7.397   0.474  0.00  0.00    +0.000 OA
ENDROOT
BRANCH   1  15
ATOM     12  C   UNL     1       0.777  -2.326   0.714  0.00  0.00    +0.000 A 
ATOM     13  C   UNL     1      -0.216  -3.284   0.829  0.00  0.00    +0.000 A 
ATOM     14  C   UNL     1       0.272  -4.611   0.897  0.00  0.00    +0.000 A 
ATOM     15  C   UNL     1       1.485  -4.982   0.530  0.00  0.00    +0.000 A 
ATOM     16  C   UNL     1       2.403  -3.982   0.366  0.00  0.00    +0.000 A 
ATOM     17  C   UNL     1       2.027  -2.662   0.416  0.00  0.00    +0.000 A 
BRANCH  12  19
ATOM     18  C   UNL     1       0.907   0.030   0.021  0.00  0.00    +0.000 C 
ATOM     19  O   UNL     1       0.434  -0.963   0.918  0.00  0.00    +0.000 OA
ENDBRANCH  12  19
BRANCH  17  20
ATOM     20  O   UNL     1       2.983  -1.647   0.147  0.00  0.00    +0.000 OA
ATOM     21  C   UNL     1       2.600  -0.280   0.198  0.00  0.00    +0.000 C 
ENDBRANCH  17  20
ENDBRANCH   1  15
TORSDOF 3
