REMARK  Name = 
REMARK  7 active torsions:
REMARK  status: ('A' for Active; 'I' for Inactive)
REMARK    1  A    between atoms: C_1  and  O_2
REMARK    2  A    between atoms: O_2  and  C_3
REMARK    3  A    between atoms: C_6  and  C_7
REMARK    4  A    between atoms: C_7  and  C_9
REMARK    5  A    between atoms: C_10  and  C_11
REMARK    6  A    between atoms: C_14  and  O_15
REMARK    7  A    between atoms: C_18  and  O_19
REMARK                            x       y       z     vdW  Elec       q    Type
REMARK                         _______ _______ _______ _____ _____    ______ ____
ROOT
ATOM      1  C   UNL     1       2.048  -6.237   0.691  0.00  0.00    +0.000 C 
ATOM      2  O   UNL     1       1.779  -7.207  -0.086  0.00  0.00    +0.000 OA
ENDROOT
BRANCH   1   6
ATOM      3  C   UNL     1       0.835  -2.267  -0.362  0.00  0.00    +0.000 A 
ATOM      4  C   UNL     1       0.523  -3.326  -1.181  0.00  0.00    +0.000 A 
ATOM      5  C   UNL     1       0.918  -4.605  -0.839  0.00  0.00    +0.000 A 
ATOM      6  C   UNL     1       1.607  -4.828   0.329  0.00  0.00    +0.000 A 
ATOM      7  C   UNL     1       1.900  -3.779   1.172  0.00  0.00    +0.000 A 
ATOM      8  C   UNL     1       1.515  -2.471   0.856  0.00  0.00    +0.000 A 
BRANCH   3  10
ATOM      9  C   UNL     1       0.919   0.057   0.015  0.00  0.00    +0.000 C 
ATOM     10  O   UNL     1       0.446  -1.035  -0.760  0.00  0.00    +0.000 OA
ENDBRANCH   3  10
BRANCH   7  11
ATOM     11  O   UNL     1       2.603  -4.028   2.380  0.00  0.00    +0.000 OA
ATOM     12  H   UNL     1       2.819  -3.272   2.998  0.00  0.00    +0.000 HD
ENDBRANCH   7  11
ENDBRANCH   1   6
BRANCH   1  13
ATOM     13  C   UNL     1       2.811  -6.487   1.982  0.00  0.00    +0.000 C 
ATOM     14  C   UNL     1       3.099  -5.449   2.813  0.00  0.00    +0.000 C 
BRANCH  14  15
ATOM     15  C   UNL     1       3.862  -5.698   4.104  0.00  0.00    +0.000 A 
ATOM     16  C   UNL     1       4.974  -6.512   4.093  0.00  0.00    +0.000 A 
ATOM     17  C   UNL     1       5.687  -6.774   5.267  0.00  0.00    +0.000 A 
ATOM     18  C   UNL     1       5.237  -6.162   6.455  0.00  0.00    +0.000 A 
ATOM     19  C   UNL     1       4.109  -5.376   6.458  0.00  0.00    +0.000 A 
ATOM     20  C   UNL     1       3.428  -5.138   5.280  0.00  0.00    +0.000 A 
BRANCH  18  21
ATOM     21  O   UNL     1       5.878  -6.339   7.633  0.00  0.00    +0.000 OA
ATOM     22  H   UNL     1       6.702  -6.903   7.673  0.00  0.00    +0.000 HD
ENDBRANCH  18  21
ENDBRANCH  14  15
ENDBRANCH   1  13
TORSDOF 6
