REMARK  Name = 
REMARK  11 active torsions:
REMARK  status: ('A' for Active; 'I' for Inactive)
REMARK    1  A    between atoms: C_1  and  O_2
REMARK    2  A    between atoms: O_2  and  C_3
REMARK    3  A    between atoms: C_6  and  C_7
REMARK    4  A    between atoms: C_8  and  C_9
REMARK    5  A    between atoms: C_9  and  C_11
REMARK    6  A    between atoms: C_13  and  O_14
REMARK    7  A    between atoms: O_14  and  C_15
REMARK    8  A    between atoms: C_16  and  O_17
REMARK    9  A    between atoms: O_17  and  C_18
REMARK   10  A    between atoms: C_19  and  O_20
REMARK   11  A    between atoms: O_20  and  C_21
REMARK                            x       y       z     vdW  Elec       q    Type
REMARK                         _______ _______ _______ _____ _____    ______ ____
ROOT
ATOM      1  C   UNL     1       1.918   7.336  -4.884  0.00  0.00    +0.000 C 
ATOM      2  O   UNL     1       1.103   8.089  -5.503  0.00  0.00    +0.000 OA
ENDROOT
BRANCH   1   3
ATOM      3  C   UNL     1       3.360   7.774  -4.691  0.00  0.00    +0.000 A 
ATOM      4  C   UNL     1       3.629   9.072  -4.286  0.00  0.00    +0.000 A 
ATOM      5  C   UNL     1       4.987   9.445  -4.423  0.00  0.00    +0.000 A 
ATOM      6  C   UNL     1       5.987   8.595  -4.564  0.00  0.00    +0.000 A 
ATOM      7  C   UNL     1       5.652   7.312  -4.898  0.00  0.00    +0.000 A 
ATOM      8  C   UNL     1       4.340   6.906  -4.913  0.00  0.00    +0.000 A 
BRANCH   5   9
ATOM      9  O   UNL     1       5.295  10.831  -4.408  0.00  0.00    +0.000 OA
ATOM     10  C   UNL     1       6.642  11.261  -4.542  0.00  0.00    +0.000 C 
ENDBRANCH   5   9
BRANCH   6  11
ATOM     11  O   UNL     1       7.338   8.992  -4.380  0.00  0.00    +0.000 OA
ATOM     12  C   UNL     1       8.384   8.045  -4.542  0.00  0.00    +0.000 C 
ENDBRANCH   6  11
BRANCH   7  13
ATOM     13  O   UNL     1       6.675   6.386  -5.234  0.00  0.00    +0.000 OA
ATOM     14  C   UNL     1       6.339   5.051  -5.581  0.00  0.00    +0.000 C 
ENDBRANCH   7  13
ENDBRANCH   1   3
BRANCH   1  16
ATOM     15  C   UNL     1       2.323   5.192  -3.673  0.00  0.00    +0.000 C 
ATOM     16  C   UNL     1       1.450   5.998  -4.336  0.00  0.00    +0.000 C 
BRANCH  15  20
ATOM     17  C   UNL     1       0.950   1.541  -1.932  0.00  0.00    +0.000 A 
ATOM     18  C   UNL     1       0.028   2.375  -2.542  0.00  0.00    +0.000 A 
ATOM     19  C   UNL     1       0.611   3.438  -3.272  0.00  0.00    +0.000 A 
ATOM     20  C   UNL     1       1.855   3.853  -3.125  0.00  0.00    +0.000 A 
ATOM     21  C   UNL     1       2.701   3.015  -2.453  0.00  0.00    +0.000 A 
ATOM     22  C   UNL     1       2.227   1.888  -1.825  0.00  0.00    +0.000 A 
BRANCH  17  24
ATOM     23  C   UNL     1       1.080   0.055   0.024  0.00  0.00    +0.000 C 
ATOM     24  O   UNL     1       0.607   0.323  -1.288  0.00  0.00    +0.000 OA
ENDBRANCH  17  24
ENDBRANCH  15  20
ENDBRANCH   1  16
TORSDOF 7
