REMARK  Name = 
REMARK  7 active torsions:
REMARK  status: ('A' for Active; 'I' for Inactive)
REMARK    1  A    between atoms: C_1  and  O_2
REMARK    2  A    between atoms: O_2  and  C_3
REMARK    3  A    between atoms: C_5  and  C_6
REMARK    4  A    between atoms: C_7  and  C_8
REMARK    5  A    between atoms: C_8  and  C_10
REMARK    6  A    between atoms: C_13  and  O_14
REMARK    7  A    between atoms: C_19  and  O_20
REMARK                            x       y       z     vdW  Elec       q    Type
REMARK                         _______ _______ _______ _____ _____    ______ ____
ROOT
ATOM      1  C   UNL     1       0.919  -6.010  -0.629  0.00  0.00    +0.000 C 
ATOM      2  C   UNL     1       0.025  -6.039  -1.655  0.00  0.00    +0.000 C 
ENDROOT
BRANCH   1   5
ATOM      3  C   UNL     1       1.138  -2.303   0.069  0.00  0.00    +0.000 A 
ATOM      4  C   UNL     1       0.768  -3.507  -0.480  0.00  0.00    +0.000 A 
ATOM      5  C   UNL     1       1.316  -4.683  -0.004  0.00  0.00    +0.000 A 
ATOM      6  C   UNL     1       2.219  -4.657   1.031  0.00  0.00    +0.000 A 
ATOM      7  C   UNL     1       2.575  -3.458   1.609  0.00  0.00    +0.000 A 
ATOM      8  C   UNL     1       2.039  -2.249   1.152  0.00  0.00    +0.000 A 
BRANCH   3  10
ATOM      9  C   UNL     1       1.062   0.054   0.057  0.00  0.00    +0.000 C 
ATOM     10  O   UNL     1       0.589  -1.183  -0.455  0.00  0.00    +0.000 OA
ENDBRANCH   3  10
BRANCH   8  11
ATOM     11  O   UNL     1       2.390  -1.013   1.757  0.00  0.00    +0.000 OA
ATOM     12  H   UNL     1       1.996  -0.160   1.415  0.00  0.00    +0.000 HD
ENDBRANCH   8  11
ENDBRANCH   1   5
BRANCH   2  13
ATOM     13  C   UNL     1      -0.371  -7.367  -2.279  0.00  0.00    +0.000 C 
ATOM     14  O   UNL     1      -1.206  -7.394  -3.237  0.00  0.00    +0.000 OA
BRANCH  13  15
ATOM     15  C   UNL     1       0.230  -8.662  -1.758  0.00  0.00    +0.000 A 
ATOM     16  C   UNL     1       0.279  -8.805  -0.389  0.00  0.00    +0.000 A 
ATOM     17  C   UNL     1       0.868  -9.930   0.199  0.00  0.00    +0.000 A 
ATOM     18  C   UNL     1       1.390 -10.917  -0.662  0.00  0.00    +0.000 A 
ATOM     19  C   UNL     1       1.361 -10.750  -2.026  0.00  0.00    +0.000 A 
ATOM     20  C   UNL     1       0.772  -9.626  -2.573  0.00  0.00    +0.000 A 
BRANCH  18  21
ATOM     21  O   UNL     1       1.956 -12.049  -0.184  0.00  0.00    +0.000 OA
ATOM     22  H   UNL     1       1.997 -12.210   0.802  0.00  0.00    +0.000 HD
ENDBRANCH  18  21
ENDBRANCH  13  15
ENDBRANCH   2  13
TORSDOF 6
