REMARK SMILES CC1CCCC2CCC(N3CCC(C(O)N[C@H]4CCC[C@H]4CCC4CCCCC4C(O)O)CC3)NC12
REMARK SMILES IDX 17 1 21 2 20 3 19 4 18 5 16 6 14 8 13 9 10 10 34 11 11 12
REMARK SMILES IDX 33 13 12 14 9 15 35 16 8 17 36 18 7 19 6 20 2 21 5 22 3 23
REMARK SMILES IDX 4 24 1 26 15 27 22 29 23 30 24 31 25 32 29 33 26 34 28 35
REMARK SMILES IDX 27 36 30 37 31 38 32 40
REMARK H PARENT 16 7 35 25 15 28 31 39 32 41
ROOT
ATOM      1  C16 7DN A 201       7.883 -16.452  32.720  1.00  0.00     0.059 C 
ATOM      2  C17 7DN A 201       7.137 -17.742  33.133  1.00  0.00     0.006 C 
ATOM      3  C27 7DN A 201       5.893 -17.257  33.875  1.00  0.00     0.005 C 
ATOM      4  C28 7DN A 201       6.159 -15.828  34.335  1.00  0.00     0.002 C 
ATOM      5  C29 7DN A 201       7.533 -15.439  33.808  1.00  0.00     0.019 C 
ENDROOT
BRANCH   1   6
ATOM      6  N2  7DN A 201       7.507 -16.015  31.376  1.00  0.00    -0.289 NA
ATOM      7  H   UNL     1       6.898 -16.752  30.994  1.00  0.00     0.125 HD
BRANCH   6   8
ATOM      8  C15 7DN A 201       8.443 -15.748  30.403  1.00  0.00     0.185 C 
BRANCH   8   9
ATOM      9  C1  7DN A 201       7.803 -15.385  29.077  1.00  0.00     0.035 C 
ATOM     10  N   7DN A 201       7.958 -15.451  26.189  1.00  0.00    -0.288 NA
ATOM     11  C3  7DN A 201       7.140 -16.460  26.872  1.00  0.00     0.086 C 
ATOM     12  C4  7DN A 201       8.075 -14.144  26.876  1.00  0.00     0.086 C 
ATOM     13  C2  7DN A 201       7.697 -16.695  28.276  1.00  0.00     0.023 C 
ATOM     14  C   7DN A 201       8.594 -14.302  28.309  1.00  0.00     0.023 C 
BRANCH  10  15
ATOM     15  C5  7DN A 201       8.294 -15.545  24.848  1.00  0.00     0.124 C 
ATOM     16  N1  7DN A 201       8.398 -14.393  24.136  1.00  0.00    -0.298 NA
ATOM     17  C6  7DN A 201       8.537 -16.766  24.197  1.00  0.00     0.035 C 
ATOM     18  C9  7DN A 201       8.722 -14.380  22.823  1.00  0.00     0.061 C 
ATOM     19  C7  7DN A 201       8.878 -16.792  22.840  1.00  0.00     0.008 C 
ATOM     20  C8  7DN A 201       8.975 -15.592  22.124  1.00  0.00     0.006 C 
ATOM     21  C10 7DN A 201       8.806 -13.155  22.124  1.00  0.00     0.003 C 
ATOM     22  C13 7DN A 201       9.318 -15.569  20.756  1.00  0.00     0.005 C 
ATOM     23  C11 7DN A 201       9.148 -13.148  20.751  1.00  0.00     0.005 C 
ATOM     24  C12 7DN A 201       9.403 -14.348  20.077  1.00  0.00     0.001 C 
ATOM     25  H   UNL     1       7.483 -13.927  24.210  1.00  0.00     0.124 HD
ATOM     26  C14 7DN A 201       8.527 -11.855  22.840  1.00  0.00     0.009 C 
ENDBRANCH  10  15
ENDBRANCH   8   9
BRANCH   8  27
ATOM     27  O   7DN A 201       9.653 -15.825  30.575  1.00  0.00    -0.378 OA
ATOM     28  H   UNL     1       9.848 -15.837  31.545  1.00  0.00     0.212 HD
ENDBRANCH   8  27
ENDBRANCH   6   8
ENDBRANCH   1   6
BRANCH   2  29
ATOM     29  C18 7DN A 201       6.756 -18.683  31.988  1.00  0.00     0.005 C 
BRANCH  29  30
ATOM     30  C19 7DN A 201       7.487 -20.023  31.974  1.00  0.00     0.004 C 
BRANCH  30  31
ATOM     31  C20 7DN A 201       7.069 -20.931  30.827  1.00  0.00    -0.003 C 
ATOM     32  C21 7DN A 201       7.043 -20.385  29.515  1.00  0.00     0.004 C 
ATOM     33  C25 7DN A 201       6.722 -22.307  30.994  1.00  0.00     0.048 C 
ATOM     34  C22 7DN A 201       6.679 -21.154  28.401  1.00  0.00     0.000 C 
ATOM     35  C24 7DN A 201       6.355 -23.063  29.847  1.00  0.00     0.009 C 
ATOM     36  C23 7DN A 201       6.332 -22.494  28.567  1.00  0.00     0.000 C 
BRANCH  33  37
ATOM     37  C26 7DN A 201       6.708 -23.041  32.322  1.00  0.00     0.246 C 
BRANCH  37  38
ATOM     38  O1  7DN A 201       6.152 -22.459  33.298  1.00  0.00    -0.368 OA
ATOM     39  H   UNL     1       6.504 -22.828  34.146  1.00  0.00     0.213 HD
ENDBRANCH  37  38
BRANCH  37  40
ATOM     40  O2  7DN A 201       7.286 -24.167  32.388  1.00  0.00    -0.368 OA
ATOM     41  H   UNL     1       7.414 -24.417  33.337  1.00  0.00     0.213 HD
ENDBRANCH  37  40
ENDBRANCH  33  37
ENDBRANCH  30  31
ENDBRANCH  29  30
ENDBRANCH   2  29
TORSDOF 11
