REMARK SMILES CC(O)O[C@@H]1CC[C@@]2(C)[C@@H](CC[C@]3(C)[C@@H]2C(O)CC2[C@@H]4[C@@H](C)[C@H](C)CC[C@]4(C)CC[C@]23C)[C@@]1(C)C([O-])O
REMARK SMILES IDX 13 1 31 2 8 3 15 4 10 5 12 6 20 7 19 8 27 9 11 10 30 11
REMARK SMILES IDX 33 12 7 13 29 14 16 15 14 16 21 17 5 18 32 19 9 20 18 21
REMARK SMILES IDX 6 22 26 23 23 24 25 25 28 26 34 27 22 28 24 29 4 30 2 31
REMARK SMILES IDX 1 32 3 33 35 35 36 36 37 37 17 39
REMARK H PARENT 3 34 37 38 17 40
ROOT
ATOM      1  C06 AF7 B 702      10.364 -22.216 -19.557  1.00  0.00    -0.021 C 
ATOM      2  C07 AF7 B 702       8.870 -22.741 -19.322  1.00  0.00    -0.024 C 
ATOM      3  C08 AF7 B 702      12.860 -22.259 -18.586  1.00  0.00    -0.023 C 
ATOM      4  C09 AF7 B 702      11.327 -22.707 -18.382  1.00  0.00     0.030 C 
ATOM      5  C10 AF7 B 702      13.433 -22.585 -19.996  1.00  0.00     0.005 C 
ATOM      6  C11 AF7 B 702      10.986 -22.717 -20.886  1.00  0.00     0.008 C 
ATOM      7  C12 AF7 B 702       6.716 -21.937 -17.631  1.00  0.00     0.002 C 
ATOM      8  C13 AF7 B 702       8.279 -22.295 -17.897  1.00  0.00     0.002 C 
ATOM      9  C14 AF7 B 702       5.962 -21.699 -19.003  1.00  0.00    -0.029 C 
ATOM     10  C15 AF7 B 702      12.410 -22.217 -21.105  1.00  0.00     0.005 C 
ATOM     11  C16 AF7 B 702       7.954 -22.133 -20.444  1.00  0.00     0.008 C 
ATOM     12  C17 AF7 B 702      14.941 -21.945 -20.251  1.00  0.00     0.008 C 
ATOM     13  C18 AF7 B 702      13.844 -22.942 -17.620  1.00  0.00     0.010 C 
ATOM     14  C19 AF7 B 702       7.011 -21.089 -19.944  1.00  0.00     0.007 C 
ATOM     15  C20 AF7 B 702      10.690 -22.240 -17.044  1.00  0.00     0.119 C 
ATOM     16  C21 AF7 B 702      10.246 -20.681 -19.666  1.00  0.00     0.012 C 
ATOM     17  C22 AF7 B 702       5.857 -22.914 -16.682  1.00  0.00    -0.007 C 
ATOM     18  C23 AF7 B 702      15.969 -22.191 -19.034  1.00  0.00     0.128 C 
ATOM     19  C24 AF7 B 702       8.918 -24.261 -19.556  1.00  0.00     0.012 C 
ATOM     20  C25 AF7 B 702      12.876 -20.752 -18.368  1.00  0.00     0.012 C 
ATOM     21  C26 AF7 B 702       9.164 -22.201 -16.881  1.00  0.00     0.036 C 
ATOM     22  C27 AF7 B 702      15.255 -22.261 -17.619  1.00  0.00     0.033 C 
ATOM     23  C28 AF7 B 702       5.365 -23.083 -19.532  1.00  0.00     0.007 C 
ATOM     24  C29 AF7 B 702       4.382 -23.075 -17.140  1.00  0.00    -0.011 C 
ATOM     25  C30 AF7 B 702       4.417 -23.768 -18.557  1.00  0.00     0.004 C 
ATOM     26  C31 AF7 B 702       4.838 -20.607 -18.916  1.00  0.00     0.011 C 
ATOM     27  C32 AF7 B 702      15.522 -22.548 -21.524  1.00  0.00     0.016 C 
ATOM     28  C34 AF7 B 702       5.836 -22.470 -15.178  1.00  0.00     0.008 C 
ATOM     29  C35 AF7 B 702       3.562 -23.773 -16.000  1.00  0.00     0.008 C 
ENDROOT
BRANCH  18  30
ATOM     30  O01 AF7 B 702      16.842 -23.330 -19.270  1.00  0.00    -0.349 OA
BRANCH  30  31
ATOM     31  C36 AF7 B 702      18.133 -23.068 -19.700  1.00  0.00     0.243 C 
ATOM     32  C37 AF7 B 702      18.523 -23.284 -21.173  1.00  0.00     0.071 C 
BRANCH  31  33
ATOM     33  O05 AF7 B 702      18.991 -22.649 -18.930  1.00  0.00    -0.368 OA
ATOM     34  H   UNL     1      18.695 -22.793 -17.996  1.00  0.00     0.213 HD
ENDBRANCH  31  33
ENDBRANCH  30  31
ENDBRANCH  18  30
BRANCH  12  35
ATOM     35  C33 AF7 B 702      14.836 -20.367 -20.548  1.00  0.00     0.027 C 
ATOM     36  O03 AF7 B 702      14.302 -20.032 -21.638  1.00  0.00    -0.831 OA
BRANCH  35  37
ATOM     37  O04 AF7 B 702      15.292 -19.521 -19.715  1.00  0.00    -0.410 OA
ATOM     38  H   UNL     1      15.120 -19.840 -18.794  1.00  0.00     0.209 HD
ENDBRANCH  35  37
ENDBRANCH  12  35
BRANCH  15  39
ATOM     39  O02 AF7 B 702      11.412 -21.871 -16.095  1.00  0.00    -0.393 OA
ATOM     40  H   UNL     1      10.971 -22.096 -15.238  1.00  0.00     0.210 HD
ENDBRANCH  15  39
TORSDOF 6
