MODEL 1
REMARK VINA RESULT:    -6.957      0.000      0.000
REMARK INTER + INTRA:          -9.065
REMARK INTER:                  -8.433
REMARK INTRA:                  -0.632
REMARK UNBOUND:                -0.481
REMARK  Name = 
REMARK  6 active torsions:
REMARK  status: ('A' for Active; 'I' for Inactive)
REMARK    1  A    between atoms: C_1  and  O_2
REMARK    2  A    between atoms: O_2  and  C_3
REMARK    3  A    between atoms: C_6  and  C_7
REMARK    4  A    between atoms: C_8  and  C_9
REMARK    5  A    between atoms: C_11  and  O_12
REMARK    6  A    between atoms: C_14  and  O_15
REMARK                            x       y       z     vdW  Elec       q    Type
REMARK                         _______ _______ _______ _____ _____    ______ ____
ROOT
ATOM      1  C   UNL     1      49.193  35.752 184.163  0.00  0.00    +0.000 C 
ATOM      2  C   UNL     1      48.031  36.220 183.633  0.00  0.00    +0.000 C 
ENDROOT
BRANCH   1   6
ATOM      3  C   UNL     1      50.517  31.921 182.817  0.00  0.00    +0.000 A 
ATOM      4  C   UNL     1      50.811  33.034 182.047  0.00  0.00    +0.000 A 
ATOM      5  C   UNL     1      50.524  34.264 182.684  0.00  0.00    +0.000 A 
ATOM      6  C   UNL     1      49.732  34.397 183.733  0.00  0.00    +0.000 A 
ATOM      7  C   UNL     1      49.424  33.250 184.411  0.00  0.00    +0.000 A 
ATOM      8  C   UNL     1      49.783  32.020 183.919  0.00  0.00    +0.000 A 
BRANCH   3  10
ATOM      9  C   UNL     1      50.952  29.556 183.335  0.00  0.00    +0.000 C 
ATOM     10  O   UNL     1      50.998  30.644 182.423  0.00  0.00    +0.000 OA
ENDBRANCH   3  10
ENDBRANCH   1   6
BRANCH   2  11
ATOM     11  C   UNL     1      47.271  35.389 182.611  0.00  0.00    +0.000 A 
ATOM     12  C   UNL     1      46.226  34.579 183.019  0.00  0.00    +0.000 A 
ATOM     13  C   UNL     1      45.794  33.660 182.032  0.00  0.00    +0.000 A 
ATOM     14  C   UNL     1      46.065  33.764 180.743  0.00  0.00    +0.000 A 
ATOM     15  C   UNL     1      47.062  34.633 180.399  0.00  0.00    +0.000 A 
ATOM     16  C   UNL     1      47.624  35.470 181.334  0.00  0.00    +0.000 A 
BRANCH  13  17
ATOM     17  O   UNL     1      45.016  32.551 182.457  0.00  0.00    +0.000 OA
ATOM     18  H   UNL     1      44.079  32.690 182.775  0.00  0.00    +0.000 HD
ENDBRANCH  13  17
BRANCH  15  19
ATOM     19  O   UNL     1      47.524  34.672 179.057  0.00  0.00    +0.000 OA
ATOM     20  H   UNL     1      47.648  35.551 178.596  0.00  0.00    +0.000 HD
ENDBRANCH  15  19
ENDBRANCH   2  11
TORSDOF 5
ENDMDL
MODEL 2
REMARK VINA RESULT:    -6.938      3.903      5.929
REMARK INTER + INTRA:          -9.042
REMARK INTER:                  -8.400
REMARK INTRA:                  -0.642
REMARK UNBOUND:                -0.481
REMARK  Name = 
REMARK  6 active torsions:
REMARK  status: ('A' for Active; 'I' for Inactive)
REMARK    1  A    between atoms: C_1  and  O_2
REMARK    2  A    between atoms: O_2  and  C_3
REMARK    3  A    between atoms: C_6  and  C_7
REMARK    4  A    between atoms: C_8  and  C_9
REMARK    5  A    between atoms: C_11  and  O_12
REMARK    6  A    between atoms: C_14  and  O_15
REMARK                            x       y       z     vdW  Elec       q    Type
REMARK                         _______ _______ _______ _____ _____    ______ ____
ROOT
ATOM      1  C   UNL     1      43.756  38.448 183.619  0.00  0.00    +0.000 C 
ATOM      2  C   UNL     1      42.773  37.770 184.270  0.00  0.00    +0.000 C 
ENDROOT
BRANCH   1   6
ATOM      3  C   UNL     1      47.745  37.004 184.113  0.00  0.00    +0.000 A 
ATOM      4  C   UNL     1      46.989  36.522 183.057  0.00  0.00    +0.000 A 
ATOM      5  C   UNL     1      45.775  37.219 182.855  0.00  0.00    +0.000 A 
ATOM      6  C   UNL     1      45.203  38.002 183.753  0.00  0.00    +0.000 A 
ATOM      7  C   UNL     1      45.983  38.389 184.807  0.00  0.00    +0.000 A 
ATOM      8  C   UNL     1      47.231  37.849 184.999  0.00  0.00    +0.000 A 
BRANCH   3  10
ATOM      9  C   UNL     1      49.478  35.275 183.874  0.00  0.00    +0.000 C 
ATOM     10  O   UNL     1      49.094  36.585 184.263  0.00  0.00    +0.000 OA
ENDBRANCH   3  10
ENDBRANCH   1   6
BRANCH   2  11
ATOM     11  C   UNL     1      43.120  36.566 185.130  0.00  0.00    +0.000 A 
ATOM     12  C   UNL     1      43.271  36.713 186.498  0.00  0.00    +0.000 A 
ATOM     13  C   UNL     1      43.861  35.595 187.134  0.00  0.00    +0.000 A 
ATOM     14  C   UNL     1      43.940  34.388 186.603  0.00  0.00    +0.000 A 
ATOM     15  C   UNL     1      43.713  34.298 185.258  0.00  0.00    +0.000 A 
ATOM     16  C   UNL     1      43.261  35.383 184.545  0.00  0.00    +0.000 A 
BRANCH  13  17
ATOM     17  O   UNL     1      44.405  35.783 188.432  0.00  0.00    +0.000 OA
ATOM     18  H   UNL     1      43.799  35.954 189.208  0.00  0.00    +0.000 HD
ENDBRANCH  13  17
BRANCH  15  19
ATOM     19  O   UNL     1      43.947  33.068 184.589  0.00  0.00    +0.000 OA
ATOM     20  H   UNL     1      44.332  33.066 183.666  0.00  0.00    +0.000 HD
ENDBRANCH  15  19
ENDBRANCH   2  11
TORSDOF 5
ENDMDL
MODEL 3
REMARK VINA RESULT:    -6.848      4.398      7.080
REMARK INTER + INTRA:          -8.930
REMARK INTER:                  -8.256
REMARK INTRA:                  -0.674
REMARK UNBOUND:                -0.481
REMARK  Name = 
REMARK  6 active torsions:
REMARK  status: ('A' for Active; 'I' for Inactive)
REMARK    1  A    between atoms: C_1  and  O_2
REMARK    2  A    between atoms: O_2  and  C_3
REMARK    3  A    between atoms: C_6  and  C_7
REMARK    4  A    between atoms: C_8  and  C_9
REMARK    5  A    between atoms: C_11  and  O_12
REMARK    6  A    between atoms: C_14  and  O_15
REMARK                            x       y       z     vdW  Elec       q    Type
REMARK                         _______ _______ _______ _____ _____    ______ ____
ROOT
ATOM      1  C   UNL     1      44.277  39.300 182.724  0.00  0.00    +0.000 C 
ATOM      2  C   UNL     1      45.455  38.949 182.142  0.00  0.00    +0.000 C 
ENDROOT
BRANCH   1   6
ATOM      3  C   UNL     1      43.156  37.158 186.245  0.00  0.00    +0.000 A 
ATOM      4  C   UNL     1      44.048  38.211 186.363  0.00  0.00    +0.000 A 
ATOM      5  C   UNL     1      44.180  38.985 185.187  0.00  0.00    +0.000 A 
ATOM      6  C   UNL     1      43.809  38.587 183.983  0.00  0.00    +0.000 A 
ATOM      7  C   UNL     1      42.982  37.499 183.931  0.00  0.00    +0.000 A 
ATOM      8  C   UNL     1      42.701  36.770 185.059  0.00  0.00    +0.000 A 
BRANCH   3  10
ATOM      9  C   UNL     1      42.671  37.144 188.657  0.00  0.00    +0.000 C 
ATOM     10  O   UNL     1      42.721  36.469 187.409  0.00  0.00    +0.000 OA
ENDBRANCH   3  10
ENDBRANCH   1   6
BRANCH   2  11
ATOM     11  C   UNL     1      46.304  37.844 182.748  0.00  0.00    +0.000 A 
ATOM     12  C   UNL     1      46.126  36.533 182.342  0.00  0.00    +0.000 A 
ATOM     13  C   UNL     1      46.769  35.583 183.172  0.00  0.00    +0.000 A 
ATOM     14  C   UNL     1      47.736  35.868 184.025  0.00  0.00    +0.000 A 
ATOM     15  C   UNL     1      47.906  37.189 184.334  0.00  0.00    +0.000 A 
ATOM     16  C   UNL     1      47.217  38.167 183.657  0.00  0.00    +0.000 A 
BRANCH  13  17
ATOM     17  O   UNL     1      46.346  34.231 183.080  0.00  0.00    +0.000 OA
ATOM     18  H   UNL     1      45.469  33.954 183.473  0.00  0.00    +0.000 HD
ENDBRANCH  13  17
BRANCH  15  19
ATOM     19  O   UNL     1      48.807  37.556 185.368  0.00  0.00    +0.000 OA
ATOM     20  H   UNL     1      48.456  37.837 186.261  0.00  0.00    +0.000 HD
ENDBRANCH  15  19
ENDBRANCH   2  11
TORSDOF 5
ENDMDL
MODEL 4
REMARK VINA RESULT:    -6.822      1.777      3.083
REMARK INTER + INTRA:          -8.899
REMARK INTER:                  -8.217
REMARK INTRA:                  -0.681
REMARK UNBOUND:                -0.481
REMARK  Name = 
REMARK  6 active torsions:
REMARK  status: ('A' for Active; 'I' for Inactive)
REMARK    1  A    between atoms: C_1  and  O_2
REMARK    2  A    between atoms: O_2  and  C_3
REMARK    3  A    between atoms: C_6  and  C_7
REMARK    4  A    between atoms: C_8  and  C_9
REMARK    5  A    between atoms: C_11  and  O_12
REMARK    6  A    between atoms: C_14  and  O_15
REMARK                            x       y       z     vdW  Elec       q    Type
REMARK                         _______ _______ _______ _____ _____    ______ ____
ROOT
ATOM      1  C   UNL     1      48.763  35.411 179.195  0.00  0.00    +0.000 C 
ATOM      2  C   UNL     1      47.576  35.947 179.586  0.00  0.00    +0.000 C 
ENDROOT
BRANCH   1   6
ATOM      3  C   UNL     1      50.636  32.695 181.908  0.00  0.00    +0.000 A 
ATOM      4  C   UNL     1      49.650  32.215 181.062  0.00  0.00    +0.000 A 
ATOM      5  C   UNL     1      49.254  33.135 180.062  0.00  0.00    +0.000 A 
ATOM      6  C   UNL     1      49.492  34.434 180.104  0.00  0.00    +0.000 A 
ATOM      7  C   UNL     1      50.428  34.852 181.009  0.00  0.00    +0.000 A 
ATOM      8  C   UNL     1      50.957  33.984 181.931  0.00  0.00    +0.000 A 
BRANCH   3  10
ATOM      9  C   UNL     1      51.019  30.413 182.741  0.00  0.00    +0.000 C 
ATOM     10  O   UNL     1      51.316  31.801 182.777  0.00  0.00    +0.000 OA
ENDBRANCH   3  10
ENDBRANCH   1   6
BRANCH   2  11
ATOM     11  C   UNL     1      46.978  35.572 180.932  0.00  0.00    +0.000 A 
ATOM     12  C   UNL     1      47.276  36.322 182.055  0.00  0.00    +0.000 A 
ATOM     13  C   UNL     1      46.889  35.712 183.272  0.00  0.00    +0.000 A 
ATOM     14  C   UNL     1      46.018  34.723 183.370  0.00  0.00    +0.000 A 
ATOM     15  C   UNL     1      45.713  34.064 182.212  0.00  0.00    +0.000 A 
ATOM     16  C   UNL     1      46.163  34.525 180.998  0.00  0.00    +0.000 A 
BRANCH  13  17
ATOM     17  O   UNL     1      47.478  36.195 184.471  0.00  0.00    +0.000 OA
ATOM     18  H   UNL     1      47.772  37.148 184.534  0.00  0.00    +0.000 HD
ENDBRANCH  13  17
BRANCH  15  19
ATOM     19  O   UNL     1      44.921  32.887 182.264  0.00  0.00    +0.000 OA
ATOM     20  H   UNL     1      45.298  32.016 181.950  0.00  0.00    +0.000 HD
ENDBRANCH  15  19
ENDBRANCH   2  11
TORSDOF 5
ENDMDL
MODEL 5
REMARK VINA RESULT:    -6.820      1.801      5.210
REMARK INTER + INTRA:          -8.896
REMARK INTER:                  -8.236
REMARK INTRA:                  -0.660
REMARK UNBOUND:                -0.481
REMARK  Name = 
REMARK  6 active torsions:
REMARK  status: ('A' for Active; 'I' for Inactive)
REMARK    1  A    between atoms: C_1  and  O_2
REMARK    2  A    between atoms: O_2  and  C_3
REMARK    3  A    between atoms: C_6  and  C_7
REMARK    4  A    between atoms: C_8  and  C_9
REMARK    5  A    between atoms: C_11  and  O_12
REMARK    6  A    between atoms: C_14  and  O_15
REMARK                            x       y       z     vdW  Elec       q    Type
REMARK                         _______ _______ _______ _____ _____    ______ ____
ROOT
ATOM      1  C   UNL     1      49.925  34.836 180.427  0.00  0.00    +0.000 C 
ATOM      2  C   UNL     1      51.013  34.423 181.130  0.00  0.00    +0.000 C 
ENDROOT
BRANCH   1   6
ATOM      3  C   UNL     1      46.104  34.123 182.197  0.00  0.00    +0.000 A 
ATOM      4  C   UNL     1      46.773  35.293 182.510  0.00  0.00    +0.000 A 
ATOM      5  C   UNL     1      47.915  35.533 181.710  0.00  0.00    +0.000 A 
ATOM      6  C   UNL     1      48.529  34.614 180.986  0.00  0.00    +0.000 A 
ATOM      7  C   UNL     1      47.841  33.452 180.770  0.00  0.00    +0.000 A 
ATOM      8  C   UNL     1      46.655  33.202 181.414  0.00  0.00    +0.000 A 
BRANCH   3  10
ATOM      9  C   UNL     1      44.294  34.730 183.748  0.00  0.00    +0.000 C 
ATOM     10  O   UNL     1      44.805  33.889 182.724  0.00  0.00    +0.000 OA
ENDBRANCH   3  10
ENDBRANCH   1   6
BRANCH   2  11
ATOM     11  C   UNL     1      50.835  33.739 182.476  0.00  0.00    +0.000 A 
ATOM     12  C   UNL     1      50.816  32.358 182.553  0.00  0.00    +0.000 A 
ATOM     13  C   UNL     1      50.368  31.859 183.800  0.00  0.00    +0.000 A 
ATOM     14  C   UNL     1      50.314  32.567 184.913  0.00  0.00    +0.000 A 
ATOM     15  C   UNL     1      50.407  33.924 184.777  0.00  0.00    +0.000 A 
ATOM     16  C   UNL     1      50.712  34.492 183.563  0.00  0.00    +0.000 A 
BRANCH  13  17
ATOM     17  O   UNL     1      49.948  30.503 183.858  0.00  0.00    +0.000 OA
ATOM     18  H   UNL     1      50.604  29.787 184.093  0.00  0.00    +0.000 HD
ENDBRANCH  13  17
BRANCH  15  19
ATOM     19  O   UNL     1      50.187  34.758 185.905  0.00  0.00    +0.000 OA
ATOM     20  H   UNL     1      50.669  35.630 185.984  0.00  0.00    +0.000 HD
ENDBRANCH  15  19
ENDBRANCH   2  11
TORSDOF 5
ENDMDL
MODEL 6
REMARK VINA RESULT:    -6.788      4.351      6.998
REMARK INTER + INTRA:          -8.856
REMARK INTER:                  -8.204
REMARK INTRA:                  -0.652
REMARK UNBOUND:                -0.481
REMARK  Name = 
REMARK  6 active torsions:
REMARK  status: ('A' for Active; 'I' for Inactive)
REMARK    1  A    between atoms: C_1  and  O_2
REMARK    2  A    between atoms: O_2  and  C_3
REMARK    3  A    between atoms: C_6  and  C_7
REMARK    4  A    between atoms: C_8  and  C_9
REMARK    5  A    between atoms: C_11  and  O_12
REMARK    6  A    between atoms: C_14  and  O_15
REMARK                            x       y       z     vdW  Elec       q    Type
REMARK                         _______ _______ _______ _____ _____    ______ ____
ROOT
ATOM      1  C   UNL     1      44.577  34.530 183.410  0.00  0.00    +0.000 C 
ATOM      2  C   UNL     1      45.660  34.952 182.704  0.00  0.00    +0.000 C 
ENDROOT
BRANCH   1   6
ATOM      3  C   UNL     1      43.452  36.876 186.798  0.00  0.00    +0.000 A 
ATOM      4  C   UNL     1      43.066  37.300 185.538  0.00  0.00    +0.000 A 
ATOM      5  C   UNL     1      43.295  36.348 184.516  0.00  0.00    +0.000 A 
ATOM      6  C   UNL     1      44.109  35.314 184.627  0.00  0.00    +0.000 A 
ATOM      7  C   UNL     1      44.509  34.987 185.892  0.00  0.00    +0.000 A 
ATOM      8  C   UNL     1      44.212  35.799 186.959  0.00  0.00    +0.000 A 
BRANCH   3  10
ATOM      9  C   UNL     1      42.110  37.032 188.854  0.00  0.00    +0.000 C 
ATOM     10  O   UNL     1      43.040  37.605 187.945  0.00  0.00    +0.000 OA
ENDBRANCH   3  10
ENDBRANCH   1   6
BRANCH   2  11
ATOM     11  C   UNL     1      46.404  36.207 183.131  0.00  0.00    +0.000 A 
ATOM     12  C   UNL     1      47.468  36.116 184.011  0.00  0.00    +0.000 A 
ATOM     13  C   UNL     1      47.886  37.361 184.537  0.00  0.00    +0.000 A 
ATOM     14  C   UNL     1      47.583  38.535 184.013  0.00  0.00    +0.000 A 
ATOM     15  C   UNL     1      46.567  38.549 183.098  0.00  0.00    +0.000 A 
ATOM     16  C   UNL     1      46.019  37.377 182.633  0.00  0.00    +0.000 A 
BRANCH  13  17
ATOM     17  O   UNL     1      48.687  37.348 185.710  0.00  0.00    +0.000 OA
ATOM     18  H   UNL     1      49.654  37.595 185.658  0.00  0.00    +0.000 HD
ENDBRANCH  13  17
BRANCH  15  19
ATOM     19  O   UNL     1      46.072  39.791 182.620  0.00  0.00    +0.000 OA
ATOM     20  H   UNL     1      46.504  40.645 182.908  0.00  0.00    +0.000 HD
ENDBRANCH  15  19
ENDBRANCH   2  11
TORSDOF 5
ENDMDL
MODEL 7
REMARK VINA RESULT:    -6.774      0.539      1.981
REMARK INTER + INTRA:          -8.840
REMARK INTER:                  -8.295
REMARK INTRA:                  -0.544
REMARK UNBOUND:                -0.481
REMARK  Name = 
REMARK  6 active torsions:
REMARK  status: ('A' for Active; 'I' for Inactive)
REMARK    1  A    between atoms: C_1  and  O_2
REMARK    2  A    between atoms: O_2  and  C_3
REMARK    3  A    between atoms: C_6  and  C_7
REMARK    4  A    between atoms: C_8  and  C_9
REMARK    5  A    between atoms: C_11  and  O_12
REMARK    6  A    between atoms: C_14  and  O_15
REMARK                            x       y       z     vdW  Elec       q    Type
REMARK                         _______ _______ _______ _____ _____    ______ ____
ROOT
ATOM      1  C   UNL     1      49.459  35.490 184.281  0.00  0.00    +0.000 C 
ATOM      2  C   UNL     1      48.358  36.063 183.726  0.00  0.00    +0.000 C 
ENDROOT
BRANCH   1   6
ATOM      3  C   UNL     1      50.552  31.621 182.840  0.00  0.00    +0.000 A 
ATOM      4  C   UNL     1      50.862  32.729 182.070  0.00  0.00    +0.000 A 
ATOM      5  C   UNL     1      50.658  33.963 182.731  0.00  0.00    +0.000 A 
ATOM      6  C   UNL     1      49.919  34.117 183.815  0.00  0.00    +0.000 A 
ATOM      7  C   UNL     1      49.589  32.977 184.494  0.00  0.00    +0.000 A 
ATOM      8  C   UNL     1      49.871  31.738 183.974  0.00  0.00    +0.000 A 
BRANCH   3  10
ATOM      9  C   UNL     1      52.189  29.785 182.865  0.00  0.00    +0.000 C 
ATOM     10  O   UNL     1      50.958  30.328 182.412  0.00  0.00    +0.000 OA
ENDBRANCH   3  10
ENDBRANCH   1   6
BRANCH   2  11
ATOM     11  C   UNL     1      47.586  35.332 182.639  0.00  0.00    +0.000 A 
ATOM     12  C   UNL     1      47.831  35.615 181.307  0.00  0.00    +0.000 A 
ATOM     13  C   UNL     1      46.866  35.082 180.420  0.00  0.00    +0.000 A 
ATOM     14  C   UNL     1      46.017  34.118 180.729  0.00  0.00    +0.000 A 
ATOM     15  C   UNL     1      45.869  33.840 182.059  0.00  0.00    +0.000 A 
ATOM     16  C   UNL     1      46.690  34.420 182.997  0.00  0.00    +0.000 A 
BRANCH  13  17
ATOM     17  O   UNL     1      46.804  35.622 179.108  0.00  0.00    +0.000 OA
ATOM     18  H   UNL     1      47.646  35.781 178.593  0.00  0.00    +0.000 HD
ENDBRANCH  13  17
BRANCH  15  19
ATOM     19  O   UNL     1      44.855  32.939 182.477  0.00  0.00    +0.000 OA
ATOM     20  H   UNL     1      43.905  33.096 182.210  0.00  0.00    +0.000 HD
ENDBRANCH  15  19
ENDBRANCH   2  11
TORSDOF 5
ENDMDL
MODEL 8
REMARK VINA RESULT:    -6.763      1.739      5.342
REMARK INTER + INTRA:          -8.825
REMARK INTER:                  -8.384
REMARK INTRA:                  -0.440
REMARK UNBOUND:                -0.481
REMARK  Name = 
REMARK  6 active torsions:
REMARK  status: ('A' for Active; 'I' for Inactive)
REMARK    1  A    between atoms: C_1  and  O_2
REMARK    2  A    between atoms: O_2  and  C_3
REMARK    3  A    between atoms: C_6  and  C_7
REMARK    4  A    between atoms: C_8  and  C_9
REMARK    5  A    between atoms: C_11  and  O_12
REMARK    6  A    between atoms: C_14  and  O_15
REMARK                            x       y       z     vdW  Elec       q    Type
REMARK                         _______ _______ _______ _____ _____    ______ ____
ROOT
ATOM      1  C   UNL     1      49.386  34.965 180.323  0.00  0.00    +0.000 C 
ATOM      2  C   UNL     1      50.494  34.492 180.954  0.00  0.00    +0.000 C 
ENDROOT
BRANCH   1   6
ATOM      3  C   UNL     1      45.653  34.445 182.332  0.00  0.00    +0.000 A 
ATOM      4  C   UNL     1      46.332  35.641 182.491  0.00  0.00    +0.000 A 
ATOM      5  C   UNL     1      47.435  35.795 181.618  0.00  0.00    +0.000 A 
ATOM      6  C   UNL     1      48.018  34.804 180.967  0.00  0.00    +0.000 A 
ATOM      7  C   UNL     1      47.326  33.627 180.904  0.00  0.00    +0.000 A 
ATOM      8  C   UNL     1      46.171  33.447 181.626  0.00  0.00    +0.000 A 
BRANCH   3  10
ATOM      9  C   UNL     1      44.149  34.758 184.253  0.00  0.00    +0.000 C 
ATOM     10  O   UNL     1      44.381  34.269 182.940  0.00  0.00    +0.000 OA
ENDBRANCH   3  10
ENDBRANCH   1   6
BRANCH   2  11
ATOM     11  C   UNL     1      50.367  33.802 182.302  0.00  0.00    +0.000 A 
ATOM     12  C   UNL     1      50.083  34.544 183.435  0.00  0.00    +0.000 A 
ATOM     13  C   UNL     1      50.268  33.835 184.646  0.00  0.00    +0.000 A 
ATOM     14  C   UNL     1      50.342  32.519 184.739  0.00  0.00    +0.000 A 
ATOM     15  C   UNL     1      50.555  31.838 183.574  0.00  0.00    +0.000 A 
ATOM     16  C   UNL     1      50.520  32.484 182.361  0.00  0.00    +0.000 A 
BRANCH  13  17
ATOM     17  O   UNL     1      50.381  34.590 185.844  0.00  0.00    +0.000 OA
ATOM     18  H   UNL     1      50.575  35.569 185.801  0.00  0.00    +0.000 HD
ENDBRANCH  13  17
BRANCH  15  19
ATOM     19  O   UNL     1      50.816  30.443 183.616  0.00  0.00    +0.000 OA
ATOM     20  H   UNL     1      50.057  29.792 183.626  0.00  0.00    +0.000 HD
ENDBRANCH  15  19
ENDBRANCH   2  11
TORSDOF 5
ENDMDL
MODEL 9
REMARK VINA RESULT:    -6.299      2.824      5.871
REMARK INTER + INTRA:          -8.253
REMARK INTER:                  -7.772
REMARK INTRA:                  -0.481
REMARK UNBOUND:                -0.481
REMARK  Name = 
REMARK  6 active torsions:
REMARK  status: ('A' for Active; 'I' for Inactive)
REMARK    1  A    between atoms: C_1  and  O_2
REMARK    2  A    between atoms: O_2  and  C_3
REMARK    3  A    between atoms: C_6  and  C_7
REMARK    4  A    between atoms: C_8  and  C_9
REMARK    5  A    between atoms: C_11  and  O_12
REMARK    6  A    between atoms: C_14  and  O_15
REMARK                            x       y       z     vdW  Elec       q    Type
REMARK                         _______ _______ _______ _____ _____    ______ ____
ROOT
ATOM      1  C   UNL     1      45.875  33.749 181.666  0.00  0.00    +0.000 C 
ATOM      2  C   UNL     1      46.973  32.947 181.650  0.00  0.00    +0.000 C 
ENDROOT
BRANCH   1   6
ATOM      3  C   UNL     1      45.973  37.813 182.976  0.00  0.00    +0.000 A 
ATOM      4  C   UNL     1      45.351  36.871 183.778  0.00  0.00    +0.000 A 
ATOM      5  C   UNL     1      45.565  35.535 183.365  0.00  0.00    +0.000 A 
ATOM      6  C   UNL     1      45.987  35.181 182.164  0.00  0.00    +0.000 A 
ATOM      7  C   UNL     1      46.529  36.172 181.394  0.00  0.00    +0.000 A 
ATOM      8  C   UNL     1      46.475  37.485 181.791  0.00  0.00    +0.000 A 
BRANCH   3  10
ATOM      9  C   UNL     1      45.009  39.746 184.152  0.00  0.00    +0.000 C 
ATOM     10  O   UNL     1      46.072  39.160 183.416  0.00  0.00    +0.000 OA
ENDBRANCH   3  10
ENDBRANCH   1   6
BRANCH   2  11
ATOM     11  C   UNL     1      48.313  33.480 182.130  0.00  0.00    +0.000 A 
ATOM     12  C   UNL     1      48.575  33.574 183.486  0.00  0.00    +0.000 A 
ATOM     13  C   UNL     1      49.726  34.336 183.796  0.00  0.00    +0.000 A 
ATOM     14  C   UNL     1      50.680  34.637 182.932  0.00  0.00    +0.000 A 
ATOM     15  C   UNL     1      50.382  34.459 181.610  0.00  0.00    +0.000 A 
ATOM     16  C   UNL     1      49.217  33.839 181.226  0.00  0.00    +0.000 A 
BRANCH  13  17
ATOM     17  O   UNL     1      49.866  34.811 185.127  0.00  0.00    +0.000 OA
ATOM     18  H   UNL     1      50.591  35.461 185.352  0.00  0.00    +0.000 HD
ENDBRANCH  13  17
BRANCH  15  19
ATOM     19  O   UNL     1      51.290  34.919 180.620  0.00  0.00    +0.000 OA
ATOM     20  H   UNL     1      51.761  34.263 180.030  0.00  0.00    +0.000 HD
ENDBRANCH  15  19
ENDBRANCH   2  11
TORSDOF 5
ENDMDL
