MODEL 1
REMARK VINA RESULT:    -7.244      0.000      0.000
REMARK INTER + INTRA:          -8.493
REMARK INTER:                  -8.120
REMARK INTRA:                  -0.373
REMARK UNBOUND:                -0.402
REMARK  Name = 
REMARK  3 active torsions:
REMARK  status: ('A' for Active; 'I' for Inactive)
REMARK    1  A    between atoms: C_1  and  O_2
REMARK    2  A    between atoms: O_2  and  C_3
REMARK    3  A    between atoms: C_12  and  C_14
REMARK                            x       y       z     vdW  Elec       q    Type
REMARK                         _______ _______ _______ _____ _____    ______ ____
ROOT
ATOM      1  C   UNL     1      43.772  36.691 186.939  0.00  0.00    +0.000 A 
ATOM      2  C   UNL     1      43.798  35.349 187.251  0.00  0.00    +0.000 A 
ATOM      3  C   UNL     1      44.221  34.424 186.305  0.00  0.00    +0.000 A 
ATOM      4  C   UNL     1      44.622  34.828 185.046  0.00  0.00    +0.000 A 
ATOM      5  C   UNL     1      44.592  36.182 184.761  0.00  0.00    +0.000 A 
ATOM      6  C   UNL     1      44.171  37.131 185.671  0.00  0.00    +0.000 A 
ATOM      7  C   UNL     1      44.153  38.573 185.315  0.00  0.00    +0.000 A 
ATOM      8  O   UNL     1      43.770  39.390 186.155  0.00  0.00    +0.000 OA
ATOM      9  C   UNL     1      44.626  38.896 183.983  0.00  0.00    +0.000 A 
ATOM     10  C   UNL     1      45.080  37.850 183.152  0.00  0.00    +0.000 A 
ATOM     11  O   UNL     1      45.026  36.547 183.498  0.00  0.00    +0.000 OA
ENDROOT
BRANCH  10  12
ATOM     12  C   UNL     1      45.663  38.210 181.794  0.00  0.00    +0.000 A 
ATOM     13  C   UNL     1      45.150  39.294 181.101  0.00  0.00    +0.000 A 
ATOM     14  C   UNL     1      45.558  39.355 179.748  0.00  0.00    +0.000 A 
ATOM     15  C   UNL     1      46.590  38.700 179.247  0.00  0.00    +0.000 A 
ATOM     16  C   UNL     1      47.094  37.685 180.011  0.00  0.00    +0.000 A 
ATOM     17  C   UNL     1      46.654  37.480 181.295  0.00  0.00    +0.000 A 
ENDBRANCH  10  12
BRANCH   1  19
ATOM     18  C   UNL     1      42.686  37.258 189.072  0.00  0.00    +0.000 C 
ATOM     19  O   UNL     1      43.428  37.651 187.927  0.00  0.00    +0.000 OA
ENDBRANCH   1  19
TORSDOF 2
ENDMDL
MODEL 2
REMARK VINA RESULT:    -7.173      5.059      7.186
REMARK INTER + INTRA:          -8.413
REMARK INTER:                  -8.043
REMARK INTRA:                  -0.370
REMARK UNBOUND:                -0.402
REMARK  Name = 
REMARK  3 active torsions:
REMARK  status: ('A' for Active; 'I' for Inactive)
REMARK    1  A    between atoms: C_1  and  O_2
REMARK    2  A    between atoms: O_2  and  C_3
REMARK    3  A    between atoms: C_12  and  C_14
REMARK                            x       y       z     vdW  Elec       q    Type
REMARK                         _______ _______ _______ _____ _____    ______ ____
ROOT
ATOM      1  C   UNL     1      50.266  31.818 182.562  0.00  0.00    +0.000 A 
ATOM      2  C   UNL     1      50.430  31.828 183.931  0.00  0.00    +0.000 A 
ATOM      3  C   UNL     1      50.034  32.936 184.669  0.00  0.00    +0.000 A 
ATOM      4  C   UNL     1      49.473  34.037 184.052  0.00  0.00    +0.000 A 
ATOM      5  C   UNL     1      49.314  33.999 182.677  0.00  0.00    +0.000 A 
ATOM      6  C   UNL     1      49.702  32.920 181.908  0.00  0.00    +0.000 A 
ATOM      7  C   UNL     1      49.514  32.928 180.435  0.00  0.00    +0.000 A 
ATOM      8  O   UNL     1      49.872  31.945 179.783  0.00  0.00    +0.000 OA
ATOM      9  C   UNL     1      48.885  34.114 179.889  0.00  0.00    +0.000 A 
ATOM     10  C   UNL     1      48.484  35.138 180.775  0.00  0.00    +0.000 A 
ATOM     11  O   UNL     1      48.725  35.111 182.102  0.00  0.00    +0.000 OA
ENDROOT
BRANCH  10  12
ATOM     12  C   UNL     1      47.740  36.334 180.202  0.00  0.00    +0.000 A 
ATOM     13  C   UNL     1      48.069  36.797 178.938  0.00  0.00    +0.000 A 
ATOM     14  C   UNL     1      47.529  38.070 178.636  0.00  0.00    +0.000 A 
ATOM     15  C   UNL     1      46.527  38.632 179.288  0.00  0.00    +0.000 A 
ATOM     16  C   UNL     1      46.207  38.086 180.499  0.00  0.00    +0.000 A 
ATOM     17  C   UNL     1      46.787  36.915 180.922  0.00  0.00    +0.000 A 
ENDBRANCH  10  12
BRANCH   1  19
ATOM     18  C   UNL     1      51.319  29.600 182.411  0.00  0.00    +0.000 C 
ATOM     19  O   UNL     1      50.582  30.655 181.811  0.00  0.00    +0.000 OA
ENDBRANCH   1  19
TORSDOF 2
ENDMDL
MODEL 3
REMARK VINA RESULT:    -7.159      2.073      7.111
REMARK INTER + INTRA:          -8.398
REMARK INTER:                  -7.997
REMARK INTRA:                  -0.401
REMARK UNBOUND:                -0.402
REMARK  Name = 
REMARK  3 active torsions:
REMARK  status: ('A' for Active; 'I' for Inactive)
REMARK    1  A    between atoms: C_1  and  O_2
REMARK    2  A    between atoms: O_2  and  C_3
REMARK    3  A    between atoms: C_12  and  C_14
REMARK                            x       y       z     vdW  Elec       q    Type
REMARK                         _______ _______ _______ _____ _____    ______ ____
ROOT
ATOM      1  C   UNL     1      45.564  36.467 184.269  0.00  0.00    +0.000 A 
ATOM      2  C   UNL     1      45.952  37.535 183.489  0.00  0.00    +0.000 A 
ATOM      3  C   UNL     1      45.547  38.821 183.820  0.00  0.00    +0.000 A 
ATOM      4  C   UNL     1      44.755  39.053 184.928  0.00  0.00    +0.000 A 
ATOM      5  C   UNL     1      44.383  37.964 185.698  0.00  0.00    +0.000 A 
ATOM      6  C   UNL     1      44.760  36.670 185.397  0.00  0.00    +0.000 A 
ATOM      7  C   UNL     1      44.332  35.534 186.253  0.00  0.00    +0.000 A 
ATOM      8  O   UNL     1      44.689  34.393 185.951  0.00  0.00    +0.000 OA
ATOM      9  C   UNL     1      43.533  35.886 187.410  0.00  0.00    +0.000 A 
ATOM     10  C   UNL     1      43.248  37.248 187.649  0.00  0.00    +0.000 A 
ATOM     11  O   UNL     1      43.612  38.242 186.813  0.00  0.00    +0.000 OA
ENDROOT
BRANCH  10  12
ATOM     12  C   UNL     1      42.492  37.613 188.917  0.00  0.00    +0.000 A 
ATOM     13  C   UNL     1      42.047  36.605 189.757  0.00  0.00    +0.000 A 
ATOM     14  C   UNL     1      41.117  37.039 190.731  0.00  0.00    +0.000 A 
ATOM     15  C   UNL     1      40.937  38.299 191.085  0.00  0.00    +0.000 A 
ATOM     16  C   UNL     1      41.459  39.246 190.248  0.00  0.00    +0.000 A 
ATOM     17  C   UNL     1      42.270  38.892 189.197  0.00  0.00    +0.000 A 
ENDBRANCH  10  12
BRANCH   1  19
ATOM     18  C   UNL     1      47.413  34.968 183.650  0.00  0.00    +0.000 C 
ATOM     19  O   UNL     1      46.048  35.161 183.991  0.00  0.00    +0.000 OA
ENDBRANCH   1  19
TORSDOF 2
ENDMDL
MODEL 4
REMARK VINA RESULT:    -7.109      1.854      3.417
REMARK INTER + INTRA:          -8.342
REMARK INTER:                  -7.970
REMARK INTRA:                  -0.372
REMARK UNBOUND:                -0.402
REMARK  Name = 
REMARK  3 active torsions:
REMARK  status: ('A' for Active; 'I' for Inactive)
REMARK    1  A    between atoms: C_1  and  O_2
REMARK    2  A    between atoms: O_2  and  C_3
REMARK    3  A    between atoms: C_12  and  C_14
REMARK                            x       y       z     vdW  Elec       q    Type
REMARK                         _______ _______ _______ _____ _____    ______ ____
ROOT
ATOM      1  C   UNL     1      44.169  37.392 185.907  0.00  0.00    +0.000 A 
ATOM      2  C   UNL     1      43.960  38.730 186.168  0.00  0.00    +0.000 A 
ATOM      3  C   UNL     1      44.583  39.695 185.388  0.00  0.00    +0.000 A 
ATOM      4  C   UNL     1      45.415  39.336 184.344  0.00  0.00    +0.000 A 
ATOM      5  C   UNL     1      45.602  37.986 184.100  0.00  0.00    +0.000 A 
ATOM      6  C   UNL     1      45.007  36.998 184.858  0.00  0.00    +0.000 A 
ATOM      7  C   UNL     1      45.244  35.563 184.558  0.00  0.00    +0.000 A 
ATOM      8  O   UNL     1      44.693  34.709 185.258  0.00  0.00    +0.000 OA
ATOM      9  C   UNL     1      46.103  35.292 183.423  0.00  0.00    +0.000 A 
ATOM     10  C   UNL     1      46.619  36.381 182.687  0.00  0.00    +0.000 A 
ATOM     11  O   UNL     1      46.422  37.670 183.030  0.00  0.00    +0.000 OA
ENDROOT
BRANCH  10  12
ATOM     12  C   UNL     1      47.440  36.084 181.442  0.00  0.00    +0.000 A 
ATOM     13  C   UNL     1      48.353  35.042 181.463  0.00  0.00    +0.000 A 
ATOM     14  C   UNL     1      49.253  35.047 180.371  0.00  0.00    +0.000 A 
ATOM     15  C   UNL     1      49.064  35.714 179.248  0.00  0.00    +0.000 A 
ATOM     16  C   UNL     1      48.100  36.684 179.272  0.00  0.00    +0.000 A 
ATOM     17  C   UNL     1      47.268  36.828 180.356  0.00  0.00    +0.000 A 
ENDBRANCH  10  12
BRANCH   1  19
ATOM     18  C   UNL     1      43.181  36.602 188.017  0.00  0.00    +0.000 C 
ATOM     19  O   UNL     1      43.465  36.400 186.640  0.00  0.00    +0.000 OA
ENDBRANCH   1  19
TORSDOF 2
ENDMDL
MODEL 5
REMARK VINA RESULT:    -7.073      4.121      6.415
REMARK INTER + INTRA:          -8.302
REMARK INTER:                  -7.931
REMARK INTRA:                  -0.371
REMARK UNBOUND:                -0.402
REMARK  Name = 
REMARK  3 active torsions:
REMARK  status: ('A' for Active; 'I' for Inactive)
REMARK    1  A    between atoms: C_1  and  O_2
REMARK    2  A    between atoms: O_2  and  C_3
REMARK    3  A    between atoms: C_12  and  C_14
REMARK                            x       y       z     vdW  Elec       q    Type
REMARK                         _______ _______ _______ _____ _____    ______ ____
ROOT
ATOM      1  C   UNL     1      49.694  32.814 181.939  0.00  0.00    +0.000 A 
ATOM      2  C   UNL     1      49.808  32.210 180.706  0.00  0.00    +0.000 A 
ATOM      3  C   UNL     1      49.042  32.661 179.639  0.00  0.00    +0.000 A 
ATOM      4  C   UNL     1      48.161  33.714 179.791  0.00  0.00    +0.000 A 
ATOM      5  C   UNL     1      48.070  34.307 181.039  0.00  0.00    +0.000 A 
ATOM      6  C   UNL     1      48.809  33.883 182.126  0.00  0.00    +0.000 A 
ATOM      7  C   UNL     1      48.673  34.549 183.446  0.00  0.00    +0.000 A 
ATOM      8  O   UNL     1      49.350  34.142 184.392  0.00  0.00    +0.000 OA
ATOM      9  C   UNL     1      47.749  35.665 183.493  0.00  0.00    +0.000 A 
ATOM     10  C   UNL     1      47.082  36.045 182.308  0.00  0.00    +0.000 A 
ATOM     11  O   UNL     1      47.195  35.374 181.143  0.00  0.00    +0.000 OA
ENDROOT
BRANCH  10  12
ATOM     12  C   UNL     1      46.189  37.275 182.347  0.00  0.00    +0.000 A 
ATOM     13  C   UNL     1      45.350  37.471 183.431  0.00  0.00    +0.000 A 
ATOM     14  C   UNL     1      44.370  38.471 183.225  0.00  0.00    +0.000 A 
ATOM     15  C   UNL     1      44.430  39.394 182.281  0.00  0.00    +0.000 A 
ATOM     16  C   UNL     1      45.328  39.176 181.273  0.00  0.00    +0.000 A 
ATOM     17  C   UNL     1      46.229  38.141 181.341  0.00  0.00    +0.000 A 
ENDBRANCH  10  12
BRANCH   1  19
ATOM     18  C   UNL     1      50.917  31.061 183.155  0.00  0.00    +0.000 C 
ATOM     19  O   UNL     1      50.539  32.421 183.011  0.00  0.00    +0.000 OA
ENDBRANCH   1  19
TORSDOF 2
ENDMDL
MODEL 6
REMARK VINA RESULT:    -7.034      2.048      6.865
REMARK INTER + INTRA:          -8.258
REMARK INTER:                  -7.876
REMARK INTRA:                  -0.382
REMARK UNBOUND:                -0.402
REMARK  Name = 
REMARK  3 active torsions:
REMARK  status: ('A' for Active; 'I' for Inactive)
REMARK    1  A    between atoms: C_1  and  O_2
REMARK    2  A    between atoms: O_2  and  C_3
REMARK    3  A    between atoms: C_12  and  C_14
REMARK                            x       y       z     vdW  Elec       q    Type
REMARK                         _______ _______ _______ _____ _____    ______ ____
ROOT
ATOM      1  C   UNL     1      47.166  35.711 180.382  0.00  0.00    +0.000 A 
ATOM      2  C   UNL     1      47.554  36.866 179.736  0.00  0.00    +0.000 A 
ATOM      3  C   UNL     1      47.211  38.104 180.263  0.00  0.00    +0.000 A 
ATOM      4  C   UNL     1      46.484  38.202 181.433  0.00  0.00    +0.000 A 
ATOM      5  C   UNL     1      46.112  37.027 182.065  0.00  0.00    +0.000 A 
ATOM      6  C   UNL     1      46.427  35.778 181.569  0.00  0.00    +0.000 A 
ATOM      7  C   UNL     1      46.002  34.547 182.282  0.00  0.00    +0.000 A 
ATOM      8  O   UNL     1      46.303  33.449 181.808  0.00  0.00    +0.000 OA
ATOM      9  C   UNL     1      45.275  34.757 183.518  0.00  0.00    +0.000 A 
ATOM     10  C   UNL     1      45.050  36.080 183.957  0.00  0.00    +0.000 A 
ATOM     11  O   UNL     1      45.407  37.170 183.248  0.00  0.00    +0.000 OA
ENDROOT
BRANCH  10  12
ATOM     12  C   UNL     1      44.371  36.286 185.302  0.00  0.00    +0.000 A 
ATOM     13  C   UNL     1      43.795  37.513 185.591  0.00  0.00    +0.000 A 
ATOM     14  C   UNL     1      43.461  37.683 186.955  0.00  0.00    +0.000 A 
ATOM     15  C   UNL     1      43.346  36.696 187.826  0.00  0.00    +0.000 A 
ATOM     16  C   UNL     1      43.875  35.492 187.453  0.00  0.00    +0.000 A 
ATOM     17  C   UNL     1      44.341  35.288 186.178  0.00  0.00    +0.000 A 
ENDBRANCH  10  12
BRANCH   1  19
ATOM     18  C   UNL     1      48.392  34.359 178.733  0.00  0.00    +0.000 C 
ATOM     19  O   UNL     1      47.590  34.444 179.902  0.00  0.00    +0.000 OA
ENDBRANCH   1  19
TORSDOF 2
ENDMDL
MODEL 7
REMARK VINA RESULT:    -7.029      4.536      7.696
REMARK INTER + INTRA:          -8.253
REMARK INTER:                  -7.864
REMARK INTRA:                  -0.389
REMARK UNBOUND:                -0.402
REMARK  Name = 
REMARK  3 active torsions:
REMARK  status: ('A' for Active; 'I' for Inactive)
REMARK    1  A    between atoms: C_1  and  O_2
REMARK    2  A    between atoms: O_2  and  C_3
REMARK    3  A    between atoms: C_12  and  C_14
REMARK                            x       y       z     vdW  Elec       q    Type
REMARK                         _______ _______ _______ _____ _____    ______ ____
ROOT
ATOM      1  C   UNL     1      46.958  37.515 179.459  0.00  0.00    +0.000 A 
ATOM      2  C   UNL     1      47.342  37.720 178.151  0.00  0.00    +0.000 A 
ATOM      3  C   UNL     1      48.359  36.953 177.598  0.00  0.00    +0.000 A 
ATOM      4  C   UNL     1      48.998  35.979 178.339  0.00  0.00    +0.000 A 
ATOM      5  C   UNL     1      48.589  35.789 179.649  0.00  0.00    +0.000 A 
ATOM      6  C   UNL     1      47.588  36.536 180.237  0.00  0.00    +0.000 A 
ATOM      7  C   UNL     1      47.189  36.297 181.647  0.00  0.00    +0.000 A 
ATOM      8  O   UNL     1      46.290  36.984 182.137  0.00  0.00    +0.000 OA
ATOM      9  C   UNL     1      47.896  35.230 182.327  0.00  0.00    +0.000 A 
ATOM     10  C   UNL     1      48.868  34.497 181.613  0.00  0.00    +0.000 A 
ATOM     11  O   UNL     1      49.238  34.786 180.348  0.00  0.00    +0.000 OA
ENDROOT
BRANCH  10  12
ATOM     12  C   UNL     1      49.534  33.319 182.307  0.00  0.00    +0.000 A 
ATOM     13  C   UNL     1      50.286  32.427 181.559  0.00  0.00    +0.000 A 
ATOM     14  C   UNL     1      50.605  31.231 182.244  0.00  0.00    +0.000 A 
ATOM     15  C   UNL     1      50.541  31.079 183.554  0.00  0.00    +0.000 A 
ATOM     16  C   UNL     1      49.842  32.030 184.243  0.00  0.00    +0.000 A 
ATOM     17  C   UNL     1      49.384  33.164 183.617  0.00  0.00    +0.000 A 
ENDBRANCH  10  12
BRANCH   1  19
ATOM     18  C   UNL     1      45.340  39.362 179.325  0.00  0.00    +0.000 C 
ATOM     19  O   UNL     1      45.859  38.230 180.005  0.00  0.00    +0.000 OA
ENDBRANCH   1  19
TORSDOF 2
ENDMDL
MODEL 8
REMARK VINA RESULT:    -6.965      3.775      6.082
REMARK INTER + INTRA:          -8.181
REMARK INTER:                  -7.788
REMARK INTRA:                  -0.393
REMARK UNBOUND:                -0.402
REMARK  Name = 
REMARK  3 active torsions:
REMARK  status: ('A' for Active; 'I' for Inactive)
REMARK    1  A    between atoms: C_1  and  O_2
REMARK    2  A    between atoms: O_2  and  C_3
REMARK    3  A    between atoms: C_12  and  C_14
REMARK                            x       y       z     vdW  Elec       q    Type
REMARK                         _______ _______ _______ _____ _____    ______ ____
ROOT
ATOM      1  C   UNL     1      45.632  38.083 182.317  0.00  0.00    +0.000 A 
ATOM      2  C   UNL     1      45.590  38.753 181.113  0.00  0.00    +0.000 A 
ATOM      3  C   UNL     1      46.386  38.331 180.056  0.00  0.00    +0.000 A 
ATOM      4  C   UNL     1      47.224  37.241 180.188  0.00  0.00    +0.000 A 
ATOM      5  C   UNL     1      47.242  36.582 181.406  0.00  0.00    +0.000 A 
ATOM      6  C   UNL     1      46.472  36.976 182.482  0.00  0.00    +0.000 A 
ATOM      7  C   UNL     1      46.530  36.238 183.770  0.00  0.00    +0.000 A 
ATOM      8  O   UNL     1      45.827  36.621 184.708  0.00  0.00    +0.000 OA
ATOM      9  C   UNL     1      47.413  35.089 183.795  0.00  0.00    +0.000 A 
ATOM     10  C   UNL     1      48.117  34.748 182.621  0.00  0.00    +0.000 A 
ATOM     11  O   UNL     1      48.076  35.480 181.489  0.00  0.00    +0.000 OA
ENDROOT
BRANCH  10  12
ATOM     12  C   UNL     1      48.965  33.486 182.631  0.00  0.00    +0.000 A 
ATOM     13  C   UNL     1      49.304  32.905 183.842  0.00  0.00    +0.000 A 
ATOM     14  C   UNL     1      50.322  31.927 183.744  0.00  0.00    +0.000 A 
ATOM     15  C   UNL     1      50.683  31.333 182.622  0.00  0.00    +0.000 A 
ATOM     16  C   UNL     1      50.260  31.917 181.461  0.00  0.00    +0.000 A 
ATOM     17  C   UNL     1      49.368  32.962 181.479  0.00  0.00    +0.000 A 
ENDBRANCH  10  12
BRANCH   1  19
ATOM     18  C   UNL     1      44.579  39.820 183.705  0.00  0.00    +0.000 C 
ATOM     19  O   UNL     1      44.756  38.451 183.373  0.00  0.00    +0.000 OA
ENDBRANCH   1  19
TORSDOF 2
ENDMDL
MODEL 9
REMARK VINA RESULT:    -6.955      4.332      7.718
REMARK INTER + INTRA:          -8.170
REMARK INTER:                  -7.768
REMARK INTRA:                  -0.402
REMARK UNBOUND:                -0.402
REMARK  Name = 
REMARK  3 active torsions:
REMARK  status: ('A' for Active; 'I' for Inactive)
REMARK    1  A    between atoms: C_1  and  O_2
REMARK    2  A    between atoms: O_2  and  C_3
REMARK    3  A    between atoms: C_12  and  C_14
REMARK                            x       y       z     vdW  Elec       q    Type
REMARK                         _______ _______ _______ _____ _____    ______ ____
ROOT
ATOM      1  C   UNL     1      47.119  37.904 179.568  0.00  0.00    +0.000 A 
ATOM      2  C   UNL     1      46.193  38.651 180.265  0.00  0.00    +0.000 A 
ATOM      3  C   UNL     1      45.777  38.242 181.525  0.00  0.00    +0.000 A 
ATOM      4  C   UNL     1      46.279  37.091 182.100  0.00  0.00    +0.000 A 
ATOM      5  C   UNL     1      47.212  36.362 181.382  0.00  0.00    +0.000 A 
ATOM      6  C   UNL     1      47.644  36.732 180.124  0.00  0.00    +0.000 A 
ATOM      7  C   UNL     1      48.644  35.913 179.392  0.00  0.00    +0.000 A 
ATOM      8  O   UNL     1      49.006  36.277 178.270  0.00  0.00    +0.000 OA
ATOM      9  C   UNL     1      49.135  34.745 180.095  0.00  0.00    +0.000 A 
ATOM     10  C   UNL     1      48.660  34.488 181.399  0.00  0.00    +0.000 A 
ATOM     11  O   UNL     1      47.708  35.230 182.004  0.00  0.00    +0.000 OA
ENDROOT
BRANCH  10  12
ATOM     12  C   UNL     1      49.252  33.315 182.163  0.00  0.00    +0.000 A 
ATOM     13  C   UNL     1      49.068  33.235 183.534  0.00  0.00    +0.000 A 
ATOM     14  C   UNL     1      49.897  32.280 184.169  0.00  0.00    +0.000 A 
ATOM     15  C   UNL     1      50.523  31.299 183.545  0.00  0.00    +0.000 A 
ATOM     16  C   UNL     1      50.612  31.402 182.184  0.00  0.00    +0.000 A 
ATOM     17  C   UNL     1      49.936  32.387 181.505  0.00  0.00    +0.000 A 
ENDBRANCH  10  12
BRANCH   1  19
ATOM     18  C   UNL     1      47.991  39.723 178.161  0.00  0.00    +0.000 C 
ATOM     19  O   UNL     1      47.618  38.362 178.320  0.00  0.00    +0.000 OA
ENDBRANCH   1  19
TORSDOF 2
ENDMDL
