MODEL 1
REMARK VINA RESULT:    -7.255      0.000      0.000
REMARK INTER + INTRA:         -10.080
REMARK INTER:                  -9.415
REMARK INTRA:                  -0.664
REMARK UNBOUND:                -0.704
REMARK  Name = 
REMARK  7 active torsions:
REMARK  status: ('A' for Active; 'I' for Inactive)
REMARK    1  A    between atoms: C_1  and  O_2
REMARK    2  A    between atoms: O_2  and  C_3
REMARK    3  A    between atoms: C_6  and  C_7
REMARK    4  A    between atoms: C_7  and  C_9
REMARK    5  A    between atoms: C_10  and  C_11
REMARK    6  A    between atoms: C_14  and  O_15
REMARK    7  A    between atoms: C_18  and  O_19
REMARK                            x       y       z     vdW  Elec       q    Type
REMARK                         _______ _______ _______ _____ _____    ______ ____
ROOT
ATOM      1  C   UNL     1      45.912  36.115 183.839  0.00  0.00    +0.000 C 
ATOM      2  O   UNL     1      45.705  36.761 182.765  0.00  0.00    +0.000 OA
ENDROOT
BRANCH   1   6
ATOM      3  C   UNL     1      43.334  36.697 187.209  0.00  0.00    +0.000 A 
ATOM      4  C   UNL     1      43.734  35.431 186.854  0.00  0.00    +0.000 A 
ATOM      5  C   UNL     1      44.564  35.247 185.765  0.00  0.00    +0.000 A 
ATOM      6  C   UNL     1      45.009  36.328 185.042  0.00  0.00    +0.000 A 
ATOM      7  C   UNL     1      44.640  37.603 185.406  0.00  0.00    +0.000 A 
ATOM      8  C   UNL     1      43.800  37.826 186.504  0.00  0.00    +0.000 A 
BRANCH   3  10
ATOM      9  C   UNL     1      43.006  36.696 189.589  0.00  0.00    +0.000 C 
ATOM     10  O   UNL     1      42.501  36.814 188.267  0.00  0.00    +0.000 OA
ENDBRANCH   3  10
BRANCH   7  11
ATOM     11  O   UNL     1      45.117  38.710 184.657  0.00  0.00    +0.000 OA
ATOM     12  H   UNL     1      44.997  38.733 183.665  0.00  0.00    +0.000 HD
ENDBRANCH   7  11
ENDBRANCH   1   6
BRANCH   1  13
ATOM     13  C   UNL     1      47.065  35.128 183.921  0.00  0.00    +0.000 C 
ATOM     14  C   UNL     1      47.455  34.444 182.811  0.00  0.00    +0.000 C 
BRANCH  14  15
ATOM     15  C   UNL     1      48.609  33.458 182.892  0.00  0.00    +0.000 A 
ATOM     16  C   UNL     1      49.129  32.891 181.749  0.00  0.00    +0.000 A 
ATOM     17  C   UNL     1      50.221  32.021 181.806  0.00  0.00    +0.000 A 
ATOM     18  C   UNL     1      50.782  31.760 183.074  0.00  0.00    +0.000 A 
ATOM     19  C   UNL     1      50.237  32.309 184.211  0.00  0.00    +0.000 A 
ATOM     20  C   UNL     1      49.157  33.165 184.118  0.00  0.00    +0.000 A 
BRANCH  18  21
ATOM     21  O   UNL     1      51.856  30.951 183.225  0.00  0.00    +0.000 OA
ATOM     22  H   UNL     1      52.766  31.347 183.351  0.00  0.00    +0.000 HD
ENDBRANCH  18  21
ENDBRANCH  14  15
ENDBRANCH   1  13
TORSDOF 6
ENDMDL
MODEL 2
REMARK VINA RESULT:    -7.186      1.133      1.444
REMARK INTER + INTRA:          -9.991
REMARK INTER:                  -9.268
REMARK INTRA:                  -0.723
REMARK UNBOUND:                -0.704
REMARK  Name = 
REMARK  7 active torsions:
REMARK  status: ('A' for Active; 'I' for Inactive)
REMARK    1  A    between atoms: C_1  and  O_2
REMARK    2  A    between atoms: O_2  and  C_3
REMARK    3  A    between atoms: C_6  and  C_7
REMARK    4  A    between atoms: C_7  and  C_9
REMARK    5  A    between atoms: C_10  and  C_11
REMARK    6  A    between atoms: C_14  and  O_15
REMARK    7  A    between atoms: C_18  and  O_19
REMARK                            x       y       z     vdW  Elec       q    Type
REMARK                         _______ _______ _______ _____ _____    ______ ____
ROOT
ATOM      1  C   UNL     1      46.724  36.540 182.505  0.00  0.00    +0.000 C 
ATOM      2  O   UNL     1      46.481  37.018 181.353  0.00  0.00    +0.000 OA
ENDROOT
BRANCH   1   6
ATOM      3  C   UNL     1      44.329  37.741 185.846  0.00  0.00    +0.000 A 
ATOM      4  C   UNL     1      44.379  36.420 185.469  0.00  0.00    +0.000 A 
ATOM      5  C   UNL     1      45.151  36.037 184.389  0.00  0.00    +0.000 A 
ATOM      6  C   UNL     1      45.887  36.970 183.698  0.00  0.00    +0.000 A 
ATOM      7  C   UNL     1      45.869  38.291 184.085  0.00  0.00    +0.000 A 
ATOM      8  C   UNL     1      45.098  38.713 185.174  0.00  0.00    +0.000 A 
BRANCH   3  10
ATOM      9  C   UNL     1      43.145  37.061 187.823  0.00  0.00    +0.000 C 
ATOM     10  O   UNL     1      43.536  38.061 186.894  0.00  0.00    +0.000 OA
ENDBRANCH   3  10
BRANCH   7  11
ATOM     11  O   UNL     1      46.644  39.240 183.369  0.00  0.00    +0.000 OA
ATOM     12  H   UNL     1      46.595  40.209 183.608  0.00  0.00    +0.000 HD
ENDBRANCH   7  11
ENDBRANCH   1   6
BRANCH   1  13
ATOM     13  C   UNL     1      47.854  35.541 182.690  0.00  0.00    +0.000 C 
ATOM     14  C   UNL     1      47.635  34.218 182.460  0.00  0.00    +0.000 C 
BRANCH  14  15
ATOM     15  C   UNL     1      48.765  33.218 182.644  0.00  0.00    +0.000 A 
ATOM     16  C   UNL     1      49.337  32.598 181.554  0.00  0.00    +0.000 A 
ATOM     17  C   UNL     1      50.409  31.714 181.707  0.00  0.00    +0.000 A 
ATOM     18  C   UNL     1      50.894  31.495 183.013  0.00  0.00    +0.000 A 
ATOM     19  C   UNL     1      50.296  32.096 184.096  0.00  0.00    +0.000 A 
ATOM     20  C   UNL     1      49.238  32.965 183.909  0.00  0.00    +0.000 A 
BRANCH  18  21
ATOM     21  O   UNL     1      51.943  30.675 183.255  0.00  0.00    +0.000 OA
ATOM     22  H   UNL     1      52.142  29.922 182.628  0.00  0.00    +0.000 HD
ENDBRANCH  18  21
ENDBRANCH  14  15
ENDBRANCH   1  13
TORSDOF 6
ENDMDL
MODEL 3
REMARK VINA RESULT:    -7.177      1.342      7.899
REMARK INTER + INTRA:          -9.979
REMARK INTER:                  -9.317
REMARK INTRA:                  -0.662
REMARK UNBOUND:                -0.704
REMARK  Name = 
REMARK  7 active torsions:
REMARK  status: ('A' for Active; 'I' for Inactive)
REMARK    1  A    between atoms: C_1  and  O_2
REMARK    2  A    between atoms: O_2  and  C_3
REMARK    3  A    between atoms: C_6  and  C_7
REMARK    4  A    between atoms: C_7  and  C_9
REMARK    5  A    between atoms: C_10  and  C_11
REMARK    6  A    between atoms: C_14  and  O_15
REMARK    7  A    between atoms: C_18  and  O_19
REMARK                            x       y       z     vdW  Elec       q    Type
REMARK                         _______ _______ _______ _____ _____    ______ ____
ROOT
ATOM      1  C   UNL     1      47.671  35.077 182.886  0.00  0.00    +0.000 C 
ATOM      2  O   UNL     1      47.758  35.952 181.969  0.00  0.00    +0.000 OA
ENDROOT
BRANCH   1   6
ATOM      3  C   UNL     1      50.478  31.845 183.017  0.00  0.00    +0.000 A 
ATOM      4  C   UNL     1      50.122  32.500 184.172  0.00  0.00    +0.000 A 
ATOM      5  C   UNL     1      49.217  33.543 184.125  0.00  0.00    +0.000 A 
ATOM      6  C   UNL     1      48.656  33.921 182.929  0.00  0.00    +0.000 A 
ATOM      7  C   UNL     1      48.982  33.253 181.770  0.00  0.00    +0.000 A 
ATOM      8  C   UNL     1      49.894  32.192 181.781  0.00  0.00    +0.000 A 
BRANCH   3  10
ATOM      9  C   UNL     1      50.964  29.526 183.417  0.00  0.00    +0.000 C 
ATOM     10  O   UNL     1      51.387  30.849 183.120  0.00  0.00    +0.000 OA
ENDBRANCH   3  10
BRANCH   7  11
ATOM     11  O   UNL     1      48.385  33.647 180.544  0.00  0.00    +0.000 OA
ATOM     12  H   UNL     1      47.674  33.080 180.129  0.00  0.00    +0.000 HD
ENDBRANCH   7  11
ENDBRANCH   1   6
BRANCH   1  13
ATOM     13  C   UNL     1      46.582  35.186 183.940  0.00  0.00    +0.000 C 
ATOM     14  C   UNL     1      46.132  36.410 184.330  0.00  0.00    +0.000 C 
BRANCH  14  15
ATOM     15  C   UNL     1      45.042  36.519 185.383  0.00  0.00    +0.000 A 
ATOM     16  C   UNL     1      44.541  37.750 185.748  0.00  0.00    +0.000 A 
ATOM     17  C   UNL     1      43.505  37.860 186.680  0.00  0.00    +0.000 A 
ATOM     18  C   UNL     1      42.979  36.666 187.216  0.00  0.00    +0.000 A 
ATOM     19  C   UNL     1      43.507  35.445 186.866  0.00  0.00    +0.000 A 
ATOM     20  C   UNL     1      44.531  35.373 185.942  0.00  0.00    +0.000 A 
BRANCH  18  21
ATOM     21  O   UNL     1      41.960  36.673 188.105  0.00  0.00    +0.000 OA
ATOM     22  H   UNL     1      41.101  36.210 187.884  0.00  0.00    +0.000 HD
ENDBRANCH  18  21
ENDBRANCH  14  15
ENDBRANCH   1  13
TORSDOF 6
ENDMDL
MODEL 4
REMARK VINA RESULT:    -7.162      1.493      8.023
REMARK INTER + INTRA:          -9.959
REMARK INTER:                  -9.314
REMARK INTRA:                  -0.644
REMARK UNBOUND:                -0.704
REMARK  Name = 
REMARK  7 active torsions:
REMARK  status: ('A' for Active; 'I' for Inactive)
REMARK    1  A    between atoms: C_1  and  O_2
REMARK    2  A    between atoms: O_2  and  C_3
REMARK    3  A    between atoms: C_6  and  C_7
REMARK    4  A    between atoms: C_7  and  C_9
REMARK    5  A    between atoms: C_10  and  C_11
REMARK    6  A    between atoms: C_14  and  O_15
REMARK    7  A    between atoms: C_18  and  O_19
REMARK                            x       y       z     vdW  Elec       q    Type
REMARK                         _______ _______ _______ _____ _____    ______ ____
ROOT
ATOM      1  C   UNL     1      47.925  34.680 182.667  0.00  0.00    +0.000 C 
ATOM      2  O   UNL     1      47.991  35.592 181.785  0.00  0.00    +0.000 OA
ENDROOT
BRANCH   1   6
ATOM      3  C   UNL     1      50.776  31.483 182.646  0.00  0.00    +0.000 A 
ATOM      4  C   UNL     1      50.364  32.036 183.835  0.00  0.00    +0.000 A 
ATOM      5  C   UNL     1      49.446  33.068 183.838  0.00  0.00    +0.000 A 
ATOM      6  C   UNL     1      48.926  33.536 182.655  0.00  0.00    +0.000 A 
ATOM      7  C   UNL     1      49.307  32.970 181.459  0.00  0.00    +0.000 A 
ATOM      8  C   UNL     1      50.235  31.923 181.420  0.00  0.00    +0.000 A 
BRANCH   3  10
ATOM      9  C   UNL     1      51.442  29.247 182.071  0.00  0.00    +0.000 C 
ATOM     10  O   UNL     1      51.696  30.494 182.703  0.00  0.00    +0.000 OA
ENDBRANCH   3  10
BRANCH   7  11
ATOM     11  O   UNL     1      48.752  33.456 180.247  0.00  0.00    +0.000 OA
ATOM     12  H   UNL     1      48.611  34.437 180.118  0.00  0.00    +0.000 HD
ENDBRANCH   7  11
ENDBRANCH   1   6
BRANCH   1  13
ATOM     13  C   UNL     1      46.845  34.732 183.735  0.00  0.00    +0.000 C 
ATOM     14  C   UNL     1      46.243  35.914 184.036  0.00  0.00    +0.000 C 
BRANCH  14  15
ATOM     15  C   UNL     1      45.162  35.966 185.104  0.00  0.00    +0.000 A 
ATOM     16  C   UNL     1      44.598  34.806 185.587  0.00  0.00    +0.000 A 
ATOM     17  C   UNL     1      43.638  34.839 186.603  0.00  0.00    +0.000 A 
ATOM     18  C   UNL     1      43.284  36.100 187.126  0.00  0.00    +0.000 A 
ATOM     19  C   UNL     1      43.833  37.253 186.616  0.00  0.00    +0.000 A 
ATOM     20  C   UNL     1      44.779  37.184 185.611  0.00  0.00    +0.000 A 
BRANCH  18  21
ATOM     21  O   UNL     1      42.383  36.228 188.127  0.00  0.00    +0.000 OA
ATOM     22  H   UNL     1      41.998  37.126 188.341  0.00  0.00    +0.000 HD
ENDBRANCH  18  21
ENDBRANCH  14  15
ENDBRANCH   1  13
TORSDOF 6
ENDMDL
MODEL 5
REMARK VINA RESULT:    -7.077      4.452      9.013
REMARK INTER + INTRA:          -9.850
REMARK INTER:                  -9.178
REMARK INTRA:                  -0.672
REMARK UNBOUND:                -0.704
REMARK  Name = 
REMARK  7 active torsions:
REMARK  status: ('A' for Active; 'I' for Inactive)
REMARK    1  A    between atoms: C_1  and  O_2
REMARK    2  A    between atoms: O_2  and  C_3
REMARK    3  A    between atoms: C_6  and  C_7
REMARK    4  A    between atoms: C_7  and  C_9
REMARK    5  A    between atoms: C_10  and  C_11
REMARK    6  A    between atoms: C_14  and  O_15
REMARK    7  A    between atoms: C_18  and  O_19
REMARK                            x       y       z     vdW  Elec       q    Type
REMARK                         _______ _______ _______ _____ _____    ______ ____
ROOT
ATOM      1  C   UNL     1      44.077  36.585 186.266  0.00  0.00    +0.000 C 
ATOM      2  O   UNL     1      44.576  35.425 186.409  0.00  0.00    +0.000 OA
ENDROOT
BRANCH   1   6
ATOM      3  C   UNL     1      45.359  39.125 183.065  0.00  0.00    +0.000 A 
ATOM      4  C   UNL     1      45.079  39.657 184.302  0.00  0.00    +0.000 A 
ATOM      5  C   UNL     1      44.664  38.834 185.331  0.00  0.00    +0.000 A 
ATOM      6  C   UNL     1      44.546  37.480 185.131  0.00  0.00    +0.000 A 
ATOM      7  C   UNL     1      44.852  36.932 183.905  0.00  0.00    +0.000 A 
ATOM      8  C   UNL     1      45.276  37.736 182.841  0.00  0.00    +0.000 A 
BRANCH   3  10
ATOM      9  C   UNL     1      45.187  41.291 182.040  0.00  0.00    +0.000 C 
ATOM     10  O   UNL     1      45.735  39.982 182.089  0.00  0.00    +0.000 OA
ENDBRANCH   3  10
BRANCH   7  11
ATOM     11  O   UNL     1      44.737  35.530 183.718  0.00  0.00    +0.000 OA
ATOM     12  H   UNL     1      44.061  35.164 183.079  0.00  0.00    +0.000 HD
ENDBRANCH   7  11
ENDBRANCH   1   6
BRANCH   1  13
ATOM     13  C   UNL     1      43.011  37.078 187.231  0.00  0.00    +0.000 C 
ATOM     14  C   UNL     1      43.300  37.208 188.554  0.00  0.00    +0.000 C 
BRANCH  14  15
ATOM     15  C   UNL     1      42.235  37.702 189.519  0.00  0.00    +0.000 A 
ATOM     16  C   UNL     1      41.931  39.044 189.602  0.00  0.00    +0.000 A 
ATOM     17  C   UNL     1      40.919  39.504 190.450  0.00  0.00    +0.000 A 
ATOM     18  C   UNL     1      40.211  38.544 191.202  0.00  0.00    +0.000 A 
ATOM     19  C   UNL     1      40.543  37.211 191.133  0.00  0.00    +0.000 A 
ATOM     20  C   UNL     1      41.548  36.790 190.284  0.00  0.00    +0.000 A 
BRANCH  18  21
ATOM     21  O   UNL     1      39.200  38.893 192.030  0.00  0.00    +0.000 OA
ATOM     22  H   UNL     1      38.346  38.374 192.022  0.00  0.00    +0.000 HD
ENDBRANCH  18  21
ENDBRANCH  14  15
ENDBRANCH   1  13
TORSDOF 6
ENDMDL
MODEL 6
REMARK VINA RESULT:    -6.845      4.227      7.970
REMARK INTER + INTRA:          -9.549
REMARK INTER:                  -8.841
REMARK INTRA:                  -0.708
REMARK UNBOUND:                -0.704
REMARK  Name = 
REMARK  7 active torsions:
REMARK  status: ('A' for Active; 'I' for Inactive)
REMARK    1  A    between atoms: C_1  and  O_2
REMARK    2  A    between atoms: O_2  and  C_3
REMARK    3  A    between atoms: C_6  and  C_7
REMARK    4  A    between atoms: C_7  and  C_9
REMARK    5  A    between atoms: C_10  and  C_11
REMARK    6  A    between atoms: C_14  and  O_15
REMARK    7  A    between atoms: C_18  and  O_19
REMARK                            x       y       z     vdW  Elec       q    Type
REMARK                         _______ _______ _______ _____ _____    ______ ____
ROOT
ATOM      1  C   UNL     1      47.792  34.495 182.588  0.00  0.00    +0.000 C 
ATOM      2  O   UNL     1      46.716  34.390 183.255  0.00  0.00    +0.000 OA
ENDROOT
BRANCH   1   6
ATOM      3  C   UNL     1      50.735  31.390 182.798  0.00  0.00    +0.000 A 
ATOM      4  C   UNL     1      50.316  31.865 181.578  0.00  0.00    +0.000 A 
ATOM      5  C   UNL     1      49.365  32.866 181.515  0.00  0.00    +0.000 A 
ATOM      6  C   UNL     1      48.846  33.403 182.669  0.00  0.00    +0.000 A 
ATOM      7  C   UNL     1      49.280  32.956 183.896  0.00  0.00    +0.000 A 
ATOM      8  C   UNL     1      50.242  31.944 183.997  0.00  0.00    +0.000 A 
BRANCH   3  10
ATOM      9  C   UNL     1      51.434  29.232 182.008  0.00  0.00    +0.000 C 
ATOM     10  O   UNL     1      51.648  30.392 182.798  0.00  0.00    +0.000 OA
ENDBRANCH   3  10
BRANCH   7  11
ATOM     11  O   UNL     1      48.744  33.529 185.079  0.00  0.00    +0.000 OA
ATOM     12  H   UNL     1      47.797  33.342 185.341  0.00  0.00    +0.000 HD
ENDBRANCH   7  11
ENDBRANCH   1   6
BRANCH   1  13
ATOM     13  C   UNL     1      48.027  35.713 181.711  0.00  0.00    +0.000 C 
ATOM     14  C   UNL     1      47.273  35.902 180.594  0.00  0.00    +0.000 C 
BRANCH  14  15
ATOM     15  C   UNL     1      47.507  37.121 179.717  0.00  0.00    +0.000 A 
ATOM     16  C   UNL     1      48.107  36.993 178.483  0.00  0.00    +0.000 A 
ATOM     17  C   UNL     1      48.283  38.099 177.647  0.00  0.00    +0.000 A 
ATOM     18  C   UNL     1      47.806  39.346 178.104  0.00  0.00    +0.000 A 
ATOM     19  C   UNL     1      47.234  39.467 179.349  0.00  0.00    +0.000 A 
ATOM     20  C   UNL     1      47.077  38.352 180.150  0.00  0.00    +0.000 A 
BRANCH  18  21
ATOM     21  O   UNL     1      47.910  40.466 177.354  0.00  0.00    +0.000 OA
ATOM     22  H   UNL     1      48.519  40.481 176.561  0.00  0.00    +0.000 HD
ENDBRANCH  18  21
ENDBRANCH  14  15
ENDBRANCH   1  13
TORSDOF 6
ENDMDL
MODEL 7
REMARK VINA RESULT:    -6.732      3.839      5.982
REMARK INTER + INTRA:          -9.404
REMARK INTER:                  -8.769
REMARK INTRA:                  -0.634
REMARK UNBOUND:                -0.704
REMARK  Name = 
REMARK  7 active torsions:
REMARK  status: ('A' for Active; 'I' for Inactive)
REMARK    1  A    between atoms: C_1  and  O_2
REMARK    2  A    between atoms: O_2  and  C_3
REMARK    3  A    between atoms: C_6  and  C_7
REMARK    4  A    between atoms: C_7  and  C_9
REMARK    5  A    between atoms: C_10  and  C_11
REMARK    6  A    between atoms: C_14  and  O_15
REMARK    7  A    between atoms: C_18  and  O_19
REMARK                            x       y       z     vdW  Elec       q    Type
REMARK                         _______ _______ _______ _____ _____    ______ ____
ROOT
ATOM      1  C   UNL     1      45.722  36.639 184.173  0.00  0.00    +0.000 C 
ATOM      2  O   UNL     1      46.786  35.946 184.158  0.00  0.00    +0.000 OA
ENDROOT
BRANCH   1   6
ATOM      3  C   UNL     1      43.266  36.700 187.681  0.00  0.00    +0.000 A 
ATOM      4  C   UNL     1      43.466  37.851 186.956  0.00  0.00    +0.000 A 
ATOM      5  C   UNL     1      44.260  37.827 185.826  0.00  0.00    +0.000 A 
ATOM      6  C   UNL     1      44.840  36.652 185.410  0.00  0.00    +0.000 A 
ATOM      7  C   UNL     1      44.622  35.487 186.111  0.00  0.00    +0.000 A 
ATOM      8  C   UNL     1      43.823  35.475 187.260  0.00  0.00    +0.000 A 
BRANCH   3  10
ATOM      9  C   UNL     1      42.518  37.973 189.576  0.00  0.00    +0.000 C 
ATOM     10  O   UNL     1      42.501  36.789 188.793  0.00  0.00    +0.000 OA
ENDBRANCH   3  10
BRANCH   7  11
ATOM     11  O   UNL     1      45.218  34.279 185.663  0.00  0.00    +0.000 OA
ATOM     12  H   UNL     1      44.649  33.477 185.483  0.00  0.00    +0.000 HD
ENDBRANCH   7  11
ENDBRANCH   1   6
BRANCH   1  13
ATOM     13  C   UNL     1      45.329  37.454 182.952  0.00  0.00    +0.000 C 
ATOM     14  C   UNL     1      46.173  37.536 181.888  0.00  0.00    +0.000 C 
BRANCH  14  15
ATOM     15  C   UNL     1      45.780  38.350 180.667  0.00  0.00    +0.000 A 
ATOM     16  C   UNL     1      45.181  39.583 180.809  0.00  0.00    +0.000 A 
ATOM     17  C   UNL     1      44.860  40.363 179.694  0.00  0.00    +0.000 A 
ATOM     18  C   UNL     1      45.188  39.850 178.422  0.00  0.00    +0.000 A 
ATOM     19  C   UNL     1      45.759  38.605 178.291  0.00  0.00    +0.000 A 
ATOM     20  C   UNL     1      46.063  37.861 179.414  0.00  0.00    +0.000 A 
BRANCH  18  21
ATOM     21  O   UNL     1      44.938  40.544 177.288  0.00  0.00    +0.000 OA
ATOM     22  H   UNL     1      45.612  41.198 176.944  0.00  0.00    +0.000 HD
ENDBRANCH  18  21
ENDBRANCH  14  15
ENDBRANCH   1  13
TORSDOF 6
ENDMDL
MODEL 8
REMARK VINA RESULT:    -6.617      2.112      3.548
REMARK INTER + INTRA:          -9.255
REMARK INTER:                  -8.519
REMARK INTRA:                  -0.737
REMARK UNBOUND:                -0.704
REMARK  Name = 
REMARK  7 active torsions:
REMARK  status: ('A' for Active; 'I' for Inactive)
REMARK    1  A    between atoms: C_1  and  O_2
REMARK    2  A    between atoms: O_2  and  C_3
REMARK    3  A    between atoms: C_6  and  C_7
REMARK    4  A    between atoms: C_7  and  C_9
REMARK    5  A    between atoms: C_10  and  C_11
REMARK    6  A    between atoms: C_14  and  O_15
REMARK    7  A    between atoms: C_18  and  O_19
REMARK                            x       y       z     vdW  Elec       q    Type
REMARK                         _______ _______ _______ _____ _____    ______ ____
ROOT
ATOM      1  C   UNL     1      45.111  35.682 183.886  0.00  0.00    +0.000 C 
ATOM      2  O   UNL     1      44.102  34.916 183.990  0.00  0.00    +0.000 OA
ENDROOT
BRANCH   1   6
ATOM      3  C   UNL     1      44.613  39.933 183.742  0.00  0.00    +0.000 A 
ATOM      4  C   UNL     1      45.091  39.255 182.646  0.00  0.00    +0.000 A 
ATOM      5  C   UNL     1      45.252  37.884 182.697  0.00  0.00    +0.000 A 
ATOM      6  C   UNL     1      44.919  37.189 183.835  0.00  0.00    +0.000 A 
ATOM      7  C   UNL     1      44.411  37.854 184.928  0.00  0.00    +0.000 A 
ATOM      8  C   UNL     1      44.235  39.242 184.911  0.00  0.00    +0.000 A 
BRANCH   3  10
ATOM      9  C   UNL     1      44.516  41.901 182.367  0.00  0.00    +0.000 C 
ATOM     10  O   UNL     1      44.501  41.278 183.643  0.00  0.00    +0.000 OA
ENDBRANCH   3  10
BRANCH   7  11
ATOM     11  O   UNL     1      44.060  37.120 186.092  0.00  0.00    +0.000 OA
ATOM     12  H   UNL     1      43.302  37.426 186.667  0.00  0.00    +0.000 HD
ENDBRANCH   7  11
ENDBRANCH   1   6
BRANCH   1  13
ATOM     13  C   UNL     1      46.509  35.092 183.811  0.00  0.00    +0.000 C 
ATOM     14  C   UNL     1      46.959  34.555 182.645  0.00  0.00    +0.000 C 
BRANCH  14  15
ATOM     15  C   UNL     1      48.358  33.965 182.569  0.00  0.00    +0.000 A 
ATOM     16  C   UNL     1      49.369  34.454 183.367  0.00  0.00    +0.000 A 
ATOM     17  C   UNL     1      50.647  33.887 183.342  0.00  0.00    +0.000 A 
ATOM     18  C   UNL     1      50.856  32.787 182.485  0.00  0.00    +0.000 A 
ATOM     19  C   UNL     1      49.847  32.327 181.671  0.00  0.00    +0.000 A 
ATOM     20  C   UNL     1      48.597  32.910 181.721  0.00  0.00    +0.000 A 
BRANCH  18  21
ATOM     21  O   UNL     1      52.052  32.160 182.412  0.00  0.00    +0.000 OA
ATOM     22  H   UNL     1      52.860  32.573 182.833  0.00  0.00    +0.000 HD
ENDBRANCH  18  21
ENDBRANCH  14  15
ENDBRANCH   1  13
TORSDOF 6
ENDMDL
MODEL 9
REMARK VINA RESULT:    -6.408      2.178      3.296
REMARK INTER + INTRA:          -8.984
REMARK INTER:                  -8.280
REMARK INTRA:                  -0.704
REMARK UNBOUND:                -0.704
REMARK  Name = 
REMARK  7 active torsions:
REMARK  status: ('A' for Active; 'I' for Inactive)
REMARK    1  A    between atoms: C_1  and  O_2
REMARK    2  A    between atoms: O_2  and  C_3
REMARK    3  A    between atoms: C_6  and  C_7
REMARK    4  A    between atoms: C_7  and  C_9
REMARK    5  A    between atoms: C_10  and  C_11
REMARK    6  A    between atoms: C_14  and  O_15
REMARK    7  A    between atoms: C_18  and  O_19
REMARK                            x       y       z     vdW  Elec       q    Type
REMARK                         _______ _______ _______ _____ _____    ______ ____
ROOT
ATOM      1  C   UNL     1      47.002  35.949 180.730  0.00  0.00    +0.000 C 
ATOM      2  O   UNL     1      47.013  36.283 179.504  0.00  0.00    +0.000 OA
ENDROOT
BRANCH   1   6
ATOM      3  C   UNL     1      44.959  38.398 183.589  0.00  0.00    +0.000 A 
ATOM      4  C   UNL     1      44.932  37.028 183.705  0.00  0.00    +0.000 A 
ATOM      5  C   UNL     1      45.591  36.242 182.779  0.00  0.00    +0.000 A 
ATOM      6  C   UNL     1      46.291  36.823 181.749  0.00  0.00    +0.000 A 
ATOM      7  C   UNL     1      46.350  38.194 181.640  0.00  0.00    +0.000 A 
ATOM      8  C   UNL     1      45.695  39.020 182.560  0.00  0.00    +0.000 A 
BRANCH   3  10
ATOM      9  C   UNL     1      43.813  38.492 185.698  0.00  0.00    +0.000 C 
ATOM     10  O   UNL     1      44.275  39.115 184.508  0.00  0.00    +0.000 OA
ENDBRANCH   3  10
BRANCH   7  11
ATOM     11  O   UNL     1      47.088  38.779 180.577  0.00  0.00    +0.000 OA
ATOM     12  H   UNL     1      46.609  39.165 179.789  0.00  0.00    +0.000 HD
ENDBRANCH   7  11
ENDBRANCH   1   6
BRANCH   1  13
ATOM     13  C   UNL     1      47.701  34.676 181.177  0.00  0.00    +0.000 C 
ATOM     14  C   UNL     1      48.712  34.738 182.085  0.00  0.00    +0.000 C 
BRANCH  14  15
ATOM     15  C   UNL     1      49.411  33.465 182.533  0.00  0.00    +0.000 A 
ATOM     16  C   UNL     1      49.446  33.116 183.866  0.00  0.00    +0.000 A 
ATOM     17  C   UNL     1      50.042  31.923 184.284  0.00  0.00    +0.000 A 
ATOM     18  C   UNL     1      50.590  31.084 183.292  0.00  0.00    +0.000 A 
ATOM     19  C   UNL     1      50.575  31.456 181.968  0.00  0.00    +0.000 A 
ATOM     20  C   UNL     1      49.977  32.642 181.589  0.00  0.00    +0.000 A 
BRANCH  18  21
ATOM     21  O   UNL     1      51.165  29.899 183.600  0.00  0.00    +0.000 OA
ATOM     22  H   UNL     1      50.594  29.111 183.829  0.00  0.00    +0.000 HD
ENDBRANCH  18  21
ENDBRANCH  14  15
ENDBRANCH   1  13
TORSDOF 6
ENDMDL
