MODEL 1
REMARK VINA RESULT:    -6.455      0.000      0.000
REMARK INTER + INTRA:          -8.391
REMARK INTER:                  -7.929
REMARK INTRA:                  -0.462
REMARK UNBOUND:                -0.427
REMARK  Name = 
REMARK  6 active torsions:
REMARK  status: ('A' for Active; 'I' for Inactive)
REMARK    1  A    between atoms: C_1  and  O_2
REMARK    2  A    between atoms: O_2  and  C_3
REMARK    3  A    between atoms: C_5  and  C_6
REMARK    4  A    between atoms: C_7  and  C_8
REMARK    5  A    between atoms: C_15  and  O_16
REMARK    6  A    between atoms: O_16  and  C_17
REMARK                            x       y       z     vdW  Elec       q    Type
REMARK                         _______ _______ _______ _____ _____    ______ ____
ROOT
ATOM      1  C   UNL     1      50.769  30.805 182.151  0.00  0.00    +0.000 A 
ATOM      2  C   UNL     1      50.196  31.443 181.062  0.00  0.00    +0.000 A 
ATOM      3  C   UNL     1      49.633  32.704 181.368  0.00  0.00    +0.000 A 
ATOM      4  C   UNL     1      49.329  33.113 182.586  0.00  0.00    +0.000 A 
ATOM      5  C   UNL     1      49.870  32.400 183.620  0.00  0.00    +0.000 A 
ATOM      6  C   UNL     1      50.547  31.226 183.390  0.00  0.00    +0.000 A 
ENDROOT
BRANCH   1   8
ATOM      7  C   UNL     1      52.584  29.272 182.785  0.00  0.00    +0.000 C 
ATOM      8  O   UNL     1      51.523  29.626 181.911  0.00  0.00    +0.000 OA
ENDBRANCH   1   8
BRANCH   3   9
ATOM      9  C   UNL     1      49.357  33.654 180.214  0.00  0.00    +0.000 C 
ATOM     10  C   UNL     1      48.786  34.865 180.451  0.00  0.00    +0.000 C 
BRANCH  10  11
ATOM     11  C   UNL     1      48.509  35.815 179.297  0.00  0.00    +0.000 A 
ATOM     12  C   UNL     1      48.730  35.452 177.978  0.00  0.00    +0.000 A 
ATOM     13  C   UNL     1      48.620  36.525 177.063  0.00  0.00    +0.000 A 
ATOM     14  C   UNL     1      48.024  37.675 177.324  0.00  0.00    +0.000 A 
ATOM     15  C   UNL     1      47.772  37.944 178.640  0.00  0.00    +0.000 A 
ATOM     16  C   UNL     1      47.977  36.991 179.608  0.00  0.00    +0.000 A 
ENDBRANCH  10  11
ENDBRANCH   3   9
BRANCH   5  17
ATOM     17  O   UNL     1      49.729  32.877 184.949  0.00  0.00    +0.000 OA
ATOM     18  C   UNL     1      50.674  33.797 185.477  0.00  0.00    +0.000 C 
ENDBRANCH   5  17
TORSDOF 4
ENDMDL
MODEL 2
REMARK VINA RESULT:    -6.450      1.410      1.995
REMARK INTER + INTRA:          -8.386
REMARK INTER:                  -7.898
REMARK INTRA:                  -0.488
REMARK UNBOUND:                -0.427
REMARK  Name = 
REMARK  6 active torsions:
REMARK  status: ('A' for Active; 'I' for Inactive)
REMARK    1  A    between atoms: C_1  and  O_2
REMARK    2  A    between atoms: O_2  and  C_3
REMARK    3  A    between atoms: C_5  and  C_6
REMARK    4  A    between atoms: C_7  and  C_8
REMARK    5  A    between atoms: C_15  and  O_16
REMARK    6  A    between atoms: O_16  and  C_17
REMARK                            x       y       z     vdW  Elec       q    Type
REMARK                         _______ _______ _______ _____ _____    ______ ____
ROOT
ATOM      1  C   UNL     1      50.657  31.928 182.448  0.00  0.00    +0.000 A 
ATOM      2  C   UNL     1      50.098  32.096 181.192  0.00  0.00    +0.000 A 
ATOM      3  C   UNL     1      49.384  33.308 181.038  0.00  0.00    +0.000 A 
ATOM      4  C   UNL     1      48.954  34.055 182.039  0.00  0.00    +0.000 A 
ATOM      5  C   UNL     1      49.494  33.795 183.268  0.00  0.00    +0.000 A 
ATOM      6  C   UNL     1      50.306  32.703 183.466  0.00  0.00    +0.000 A 
ENDROOT
BRANCH   1   8
ATOM      7  C   UNL     1      51.065  29.615 183.177  0.00  0.00    +0.000 C 
ATOM      8  O   UNL     1      51.547  30.838 182.641  0.00  0.00    +0.000 OA
ENDBRANCH   1   8
BRANCH   3   9
ATOM      9  C   UNL     1      49.091  33.782 179.625  0.00  0.00    +0.000 C 
ATOM     10  C   UNL     1      49.075  35.113 179.343  0.00  0.00    +0.000 C 
BRANCH  10  11
ATOM     11  C   UNL     1      48.781  35.587 177.930  0.00  0.00    +0.000 A 
ATOM     12  C   UNL     1      48.393  36.889 177.657  0.00  0.00    +0.000 A 
ATOM     13  C   UNL     1      47.959  37.091 176.325  0.00  0.00    +0.000 A 
ATOM     14  C   UNL     1      48.215  36.272 175.321  0.00  0.00    +0.000 A 
ATOM     15  C   UNL     1      48.660  35.022 175.654  0.00  0.00    +0.000 A 
ATOM     16  C   UNL     1      48.980  34.709 176.954  0.00  0.00    +0.000 A 
ENDBRANCH  10  11
ENDBRANCH   3   9
BRANCH   5  17
ATOM     17  O   UNL     1      49.211  34.663 184.355  0.00  0.00    +0.000 OA
ATOM     18  C   UNL     1      48.817  36.005 184.108  0.00  0.00    +0.000 C 
ENDBRANCH   5  17
TORSDOF 4
ENDMDL
MODEL 3
REMARK VINA RESULT:    -6.425      6.709      8.586
REMARK INTER + INTRA:          -8.355
REMARK INTER:                  -7.849
REMARK INTRA:                  -0.507
REMARK UNBOUND:                -0.427
REMARK  Name = 
REMARK  6 active torsions:
REMARK  status: ('A' for Active; 'I' for Inactive)
REMARK    1  A    between atoms: C_1  and  O_2
REMARK    2  A    between atoms: O_2  and  C_3
REMARK    3  A    between atoms: C_5  and  C_6
REMARK    4  A    between atoms: C_7  and  C_8
REMARK    5  A    between atoms: C_15  and  O_16
REMARK    6  A    between atoms: O_16  and  C_17
REMARK                            x       y       z     vdW  Elec       q    Type
REMARK                         _______ _______ _______ _____ _____    ______ ____
ROOT
ATOM      1  C   UNL     1      43.361  36.737 187.021  0.00  0.00    +0.000 A 
ATOM      2  C   UNL     1      43.823  37.946 186.529  0.00  0.00    +0.000 A 
ATOM      3  C   UNL     1      44.315  37.877 185.204  0.00  0.00    +0.000 A 
ATOM      4  C   UNL     1      44.661  36.760 184.592  0.00  0.00    +0.000 A 
ATOM      5  C   UNL     1      44.232  35.594 185.165  0.00  0.00    +0.000 A 
ATOM      6  C   UNL     1      43.625  35.595 186.397  0.00  0.00    +0.000 A 
ENDROOT
BRANCH   1   8
ATOM      7  C   UNL     1      42.720  37.892 189.095  0.00  0.00    +0.000 C 
ATOM      8  O   UNL     1      42.677  36.741 188.265  0.00  0.00    +0.000 OA
ENDBRANCH   1   8
BRANCH   3   9
ATOM      9  C   UNL     1      44.457  39.179 184.433  0.00  0.00    +0.000 C 
ATOM     10  C   UNL     1      44.242  39.201 183.090  0.00  0.00    +0.000 C 
BRANCH  10  11
ATOM     11  C   UNL     1      44.385  40.503 182.319  0.00  0.00    +0.000 A 
ATOM     12  C   UNL     1      44.615  40.526 180.953  0.00  0.00    +0.000 A 
ATOM     13  C   UNL     1      44.930  41.809 180.446  0.00  0.00    +0.000 A 
ATOM     14  C   UNL     1      44.691  42.944 181.079  0.00  0.00    +0.000 A 
ATOM     15  C   UNL     1      44.403  42.849 182.412  0.00  0.00    +0.000 A 
ATOM     16  C   UNL     1      44.210  41.625 183.007  0.00  0.00    +0.000 A 
ENDBRANCH  10  11
ENDBRANCH   3   9
BRANCH   5  17
ATOM     17  O   UNL     1      44.417  34.366 184.477  0.00  0.00    +0.000 OA
ATOM     18  C   UNL     1      44.953  34.363 183.162  0.00  0.00    +0.000 C 
ENDBRANCH   5  17
TORSDOF 4
ENDMDL
MODEL 4
REMARK VINA RESULT:    -6.409      5.193      7.491
REMARK INTER + INTRA:          -8.336
REMARK INTER:                  -7.912
REMARK INTRA:                  -0.423
REMARK UNBOUND:                -0.427
REMARK  Name = 
REMARK  6 active torsions:
REMARK  status: ('A' for Active; 'I' for Inactive)
REMARK    1  A    between atoms: C_1  and  O_2
REMARK    2  A    between atoms: O_2  and  C_3
REMARK    3  A    between atoms: C_5  and  C_6
REMARK    4  A    between atoms: C_7  and  C_8
REMARK    5  A    between atoms: C_15  and  O_16
REMARK    6  A    between atoms: O_16  and  C_17
REMARK                            x       y       z     vdW  Elec       q    Type
REMARK                         _______ _______ _______ _____ _____    ______ ____
ROOT
ATOM      1  C   UNL     1      43.999  36.051 185.997  0.00  0.00    +0.000 A 
ATOM      2  C   UNL     1      44.784  35.145 185.303  0.00  0.00    +0.000 A 
ATOM      3  C   UNL     1      45.401  35.685 184.150  0.00  0.00    +0.000 A 
ATOM      4  C   UNL     1      45.022  36.799 183.551  0.00  0.00    +0.000 A 
ATOM      5  C   UNL     1      44.191  37.620 184.262  0.00  0.00    +0.000 A 
ATOM      6  C   UNL     1      43.653  37.214 185.460  0.00  0.00    +0.000 A 
ENDROOT
BRANCH   1   8
ATOM      7  C   UNL     1      43.088  36.646 188.202  0.00  0.00    +0.000 C 
ATOM      8  O   UNL     1      43.492  35.660 187.265  0.00  0.00    +0.000 OA
ENDBRANCH   1   8
BRANCH   3   9
ATOM      9  C   UNL     1      46.580  34.930 183.560  0.00  0.00    +0.000 C 
ATOM     10  C   UNL     1      46.453  34.300 182.361  0.00  0.00    +0.000 C 
BRANCH  10  11
ATOM     11  C   UNL     1      47.632  33.544 181.771  0.00  0.00    +0.000 A 
ATOM     12  C   UNL     1      48.681  33.090 182.555  0.00  0.00    +0.000 A 
ATOM     13  C   UNL     1      49.781  32.601 181.812  0.00  0.00    +0.000 A 
ATOM     14  C   UNL     1      49.731  32.252 180.539  0.00  0.00    +0.000 A 
ATOM     15  C   UNL     1      48.636  32.673 179.836  0.00  0.00    +0.000 A 
ATOM     16  C   UNL     1      47.578  33.277 180.471  0.00  0.00    +0.000 A 
ENDBRANCH  10  11
ENDBRANCH   3   9
BRANCH   5  17
ATOM     17  O   UNL     1      43.880  38.909 183.756  0.00  0.00    +0.000 OA
ATOM     18  C   UNL     1      44.796  39.981 183.929  0.00  0.00    +0.000 C 
ENDBRANCH   5  17
TORSDOF 4
ENDMDL
MODEL 5
REMARK VINA RESULT:    -6.405      4.110      5.452
REMARK INTER + INTRA:          -8.330
REMARK INTER:                  -7.884
REMARK INTRA:                  -0.446
REMARK UNBOUND:                -0.427
REMARK  Name = 
REMARK  6 active torsions:
REMARK  status: ('A' for Active; 'I' for Inactive)
REMARK    1  A    between atoms: C_1  and  O_2
REMARK    2  A    between atoms: O_2  and  C_3
REMARK    3  A    between atoms: C_5  and  C_6
REMARK    4  A    between atoms: C_7  and  C_8
REMARK    5  A    between atoms: C_15  and  O_16
REMARK    6  A    between atoms: O_16  and  C_17
REMARK                            x       y       z     vdW  Elec       q    Type
REMARK                         _______ _______ _______ _____ _____    ______ ____
ROOT
ATOM      1  C   UNL     1      48.836  33.271 179.746  0.00  0.00    +0.000 A 
ATOM      2  C   UNL     1      47.540  33.459 180.198  0.00  0.00    +0.000 A 
ATOM      3  C   UNL     1      47.418  33.459 181.608  0.00  0.00    +0.000 A 
ATOM      4  C   UNL     1      48.325  32.976 182.437  0.00  0.00    +0.000 A 
ATOM      5  C   UNL     1      49.568  32.748 181.914  0.00  0.00    +0.000 A 
ATOM      6  C   UNL     1      49.796  32.855 180.563  0.00  0.00    +0.000 A 
ENDROOT
BRANCH   1   8
ATOM      7  C   UNL     1      48.741  34.662 177.720  0.00  0.00    +0.000 C 
ATOM      8  O   UNL     1      49.089  33.443 178.359  0.00  0.00    +0.000 OA
ENDBRANCH   1   8
BRANCH   3   9
ATOM      9  C   UNL     1      46.156  34.053 182.209  0.00  0.00    +0.000 C 
ATOM     10  C   UNL     1      46.237  35.138 183.027  0.00  0.00    +0.000 C 
BRANCH  10  11
ATOM     11  C   UNL     1      44.974  35.732 183.628  0.00  0.00    +0.000 A 
ATOM     12  C   UNL     1      43.993  34.942 184.206  0.00  0.00    +0.000 A 
ATOM     13  C   UNL     1      42.803  35.642 184.518  0.00  0.00    +0.000 A 
ATOM     14  C   UNL     1      42.710  36.956 184.612  0.00  0.00    +0.000 A 
ATOM     15  C   UNL     1      43.744  37.679 184.084  0.00  0.00    +0.000 A 
ATOM     16  C   UNL     1      44.885  37.057 183.637  0.00  0.00    +0.000 A 
ENDBRANCH  10  11
ENDBRANCH   3   9
BRANCH   5  17
ATOM     17  O   UNL     1      50.637  32.393 182.778  0.00  0.00    +0.000 OA
ATOM     18  C   UNL     1      50.979  31.027 182.961  0.00  0.00    +0.000 C 
ENDBRANCH   5  17
TORSDOF 4
ENDMDL
MODEL 6
REMARK VINA RESULT:    -6.372      4.671      7.655
REMARK INTER + INTRA:          -8.289
REMARK INTER:                  -7.832
REMARK INTRA:                  -0.457
REMARK UNBOUND:                -0.427
REMARK  Name = 
REMARK  6 active torsions:
REMARK  status: ('A' for Active; 'I' for Inactive)
REMARK    1  A    between atoms: C_1  and  O_2
REMARK    2  A    between atoms: O_2  and  C_3
REMARK    3  A    between atoms: C_5  and  C_6
REMARK    4  A    between atoms: C_7  and  C_8
REMARK    5  A    between atoms: C_15  and  O_16
REMARK    6  A    between atoms: O_16  and  C_17
REMARK                            x       y       z     vdW  Elec       q    Type
REMARK                         _______ _______ _______ _____ _____    ______ ____
ROOT
ATOM      1  C   UNL     1      44.564  36.867 185.296  0.00  0.00    +0.000 A 
ATOM      2  C   UNL     1      45.071  35.692 184.764  0.00  0.00    +0.000 A 
ATOM      3  C   UNL     1      45.867  35.882 183.610  0.00  0.00    +0.000 A 
ATOM      4  C   UNL     1      45.862  36.974 182.868  0.00  0.00    +0.000 A 
ATOM      5  C   UNL     1      45.286  38.083 183.422  0.00  0.00    +0.000 A 
ATOM      6  C   UNL     1      44.603  38.004 184.612  0.00  0.00    +0.000 A 
ENDROOT
BRANCH   1   8
ATOM      7  C   UNL     1      43.911  35.588 187.291  0.00  0.00    +0.000 C 
ATOM      8  O   UNL     1      43.912  36.801 186.556  0.00  0.00    +0.000 OA
ENDBRANCH   1   8
BRANCH   3   9
ATOM      9  C   UNL     1      46.791  34.749 183.195  0.00  0.00    +0.000 C 
ATOM     10  C   UNL     1      48.052  34.679 183.700  0.00  0.00    +0.000 C 
BRANCH  10  11
ATOM     11  C   UNL     1      48.976  33.546 183.284  0.00  0.00    +0.000 A 
ATOM     12  C   UNL     1      49.370  33.365 181.968  0.00  0.00    +0.000 A 
ATOM     13  C   UNL     1      50.051  32.146 181.736  0.00  0.00    +0.000 A 
ATOM     14  C   UNL     1      50.599  31.403 182.681  0.00  0.00    +0.000 A 
ATOM     15  C   UNL     1      50.221  31.677 183.966  0.00  0.00    +0.000 A 
ATOM     16  C   UNL     1      49.448  32.775 184.257  0.00  0.00    +0.000 A 
ENDBRANCH  10  11
ENDBRANCH   3   9
BRANCH   5  17
ATOM     17  O   UNL     1      45.394  39.333 182.759  0.00  0.00    +0.000 OA
ATOM     18  C   UNL     1      44.713  40.470 183.271  0.00  0.00    +0.000 C 
ENDBRANCH   5  17
TORSDOF 4
ENDMDL
MODEL 7
REMARK VINA RESULT:    -6.325      4.367      6.384
REMARK INTER + INTRA:          -8.231
REMARK INTER:                  -7.798
REMARK INTRA:                  -0.434
REMARK UNBOUND:                -0.427
REMARK  Name = 
REMARK  6 active torsions:
REMARK  status: ('A' for Active; 'I' for Inactive)
REMARK    1  A    between atoms: C_1  and  O_2
REMARK    2  A    between atoms: O_2  and  C_3
REMARK    3  A    between atoms: C_5  and  C_6
REMARK    4  A    between atoms: C_7  and  C_8
REMARK    5  A    between atoms: C_15  and  O_16
REMARK    6  A    between atoms: O_16  and  C_17
REMARK                            x       y       z     vdW  Elec       q    Type
REMARK                         _______ _______ _______ _____ _____    ______ ____
ROOT
ATOM      1  C   UNL     1      48.769  34.893 180.232  0.00  0.00    +0.000 A 
ATOM      2  C   UNL     1      47.795  35.205 181.166  0.00  0.00    +0.000 A 
ATOM      3  C   UNL     1      47.856  34.421 182.343  0.00  0.00    +0.000 A 
ATOM      4  C   UNL     1      48.500  33.273 182.444  0.00  0.00    +0.000 A 
ATOM      5  C   UNL     1      49.400  32.990 181.454  0.00  0.00    +0.000 A 
ATOM      6  C   UNL     1      49.490  33.783 180.335  0.00  0.00    +0.000 A 
ENDROOT
BRANCH   1   8
ATOM      7  C   UNL     1      48.669  35.242 177.800  0.00  0.00    +0.000 C 
ATOM      8  O   UNL     1      48.909  35.746 179.105  0.00  0.00    +0.000 OA
ENDBRANCH   1   8
BRANCH   3   9
ATOM      9  C   UNL     1      47.128  34.935 183.574  0.00  0.00    +0.000 C 
ATOM     10  C   UNL     1      45.778  35.099 183.547  0.00  0.00    +0.000 C 
BRANCH  10  11
ATOM     11  C   UNL     1      45.050  35.614 184.778  0.00  0.00    +0.000 A 
ATOM     12  C   UNL     1      44.765  36.958 184.954  0.00  0.00    +0.000 A 
ATOM     13  C   UNL     1      44.279  37.276 186.244  0.00  0.00    +0.000 A 
ATOM     14  C   UNL     1      43.788  36.396 187.098  0.00  0.00    +0.000 A 
ATOM     15  C   UNL     1      44.046  35.080 186.831  0.00  0.00    +0.000 A 
ATOM     16  C   UNL     1      44.637  34.702 185.650  0.00  0.00    +0.000 A 
ENDBRANCH  10  11
ENDBRANCH   3   9
BRANCH   5  17
ATOM     17  O   UNL     1      50.251  31.862 181.582  0.00  0.00    +0.000 OA
ATOM     18  C   UNL     1      50.662  31.425 182.869  0.00  0.00    +0.000 C 
ENDBRANCH   5  17
TORSDOF 4
ENDMDL
MODEL 8
REMARK VINA RESULT:    -6.322      4.119      5.408
REMARK INTER + INTRA:          -8.228
REMARK INTER:                  -7.741
REMARK INTRA:                  -0.487
REMARK UNBOUND:                -0.427
REMARK  Name = 
REMARK  6 active torsions:
REMARK  status: ('A' for Active; 'I' for Inactive)
REMARK    1  A    between atoms: C_1  and  O_2
REMARK    2  A    between atoms: O_2  and  C_3
REMARK    3  A    between atoms: C_5  and  C_6
REMARK    4  A    between atoms: C_7  and  C_8
REMARK    5  A    between atoms: C_15  and  O_16
REMARK    6  A    between atoms: O_16  and  C_17
REMARK                            x       y       z     vdW  Elec       q    Type
REMARK                         _______ _______ _______ _____ _____    ______ ____
ROOT
ATOM      1  C   UNL     1      49.797  32.609 183.065  0.00  0.00    +0.000 A 
ATOM      2  C   UNL     1      49.356  33.741 183.731  0.00  0.00    +0.000 A 
ATOM      3  C   UNL     1      48.749  34.702 182.888  0.00  0.00    +0.000 A 
ATOM      4  C   UNL     1      48.887  34.741 181.576  0.00  0.00    +0.000 A 
ATOM      5  C   UNL     1      49.392  33.616 180.984  0.00  0.00    +0.000 A 
ATOM      6  C   UNL     1      49.884  32.580 181.741  0.00  0.00    +0.000 A 
ENDROOT
BRANCH   1   8
ATOM      7  C   UNL     1      50.921  30.428 183.222  0.00  0.00    +0.000 C 
ATOM      8  O   UNL     1      50.248  31.511 183.845  0.00  0.00    +0.000 OA
ENDBRANCH   1   8
BRANCH   3   9
ATOM      9  C   UNL     1      47.879  35.765 183.539  0.00  0.00    +0.000 C 
ATOM     10  C   UNL     1      46.579  35.493 183.834  0.00  0.00    +0.000 C 
BRANCH  10  11
ATOM     11  C   UNL     1      45.709  36.556 184.484  0.00  0.00    +0.000 A 
ATOM     12  C   UNL     1      44.387  36.317 184.825  0.00  0.00    +0.000 A 
ATOM     13  C   UNL     1      43.678  37.475 185.220  0.00  0.00    +0.000 A 
ATOM     14  C   UNL     1      44.244  38.610 185.592  0.00  0.00    +0.000 A 
ATOM     15  C   UNL     1      45.569  38.757 185.288  0.00  0.00    +0.000 A 
ATOM     16  C   UNL     1      46.297  37.710 184.776  0.00  0.00    +0.000 A 
ENDBRANCH  10  11
ENDBRANCH   3   9
BRANCH   5  17
ATOM     17  O   UNL     1      49.410  33.518 179.568  0.00  0.00    +0.000 OA
ATOM     18  C   UNL     1      48.500  34.285 178.792  0.00  0.00    +0.000 C 
ENDBRANCH   5  17
TORSDOF 4
ENDMDL
MODEL 9
REMARK VINA RESULT:    -6.295      5.137      8.077
REMARK INTER + INTRA:          -8.194
REMARK INTER:                  -7.767
REMARK INTRA:                  -0.427
REMARK UNBOUND:                -0.427
REMARK  Name = 
REMARK  6 active torsions:
REMARK  status: ('A' for Active; 'I' for Inactive)
REMARK    1  A    between atoms: C_1  and  O_2
REMARK    2  A    between atoms: O_2  and  C_3
REMARK    3  A    between atoms: C_5  and  C_6
REMARK    4  A    between atoms: C_7  and  C_8
REMARK    5  A    between atoms: C_15  and  O_16
REMARK    6  A    between atoms: O_16  and  C_17
REMARK                            x       y       z     vdW  Elec       q    Type
REMARK                         _______ _______ _______ _____ _____    ______ ____
ROOT
ATOM      1  C   UNL     1      44.551  38.347 183.458  0.00  0.00    +0.000 A 
ATOM      2  C   UNL     1      45.588  37.453 183.251  0.00  0.00    +0.000 A 
ATOM      3  C   UNL     1      45.721  36.482 184.272  0.00  0.00    +0.000 A 
ATOM      4  C   UNL     1      45.194  36.587 185.478  0.00  0.00    +0.000 A 
ATOM      5  C   UNL     1      44.222  37.536 185.636  0.00  0.00    +0.000 A 
ATOM      6  C   UNL     1      43.944  38.436 184.636  0.00  0.00    +0.000 A 
ENDROOT
BRANCH   1   8
ATOM      7  C   UNL     1      44.579  40.607 182.490  0.00  0.00    +0.000 C 
ATOM      8  O   UNL     1      44.218  39.238 182.403  0.00  0.00    +0.000 OA
ENDBRANCH   1   8
BRANCH   3   9
ATOM      9  C   UNL     1      46.529  35.234 183.960  0.00  0.00    +0.000 C 
ATOM     10  C   UNL     1      47.888  35.287 183.950  0.00  0.00    +0.000 C 
BRANCH  10  11
ATOM     11  C   UNL     1      48.696  34.038 183.636  0.00  0.00    +0.000 A 
ATOM     12  C   UNL     1      49.358  33.325 184.622  0.00  0.00    +0.000 A 
ATOM     13  C   UNL     1      50.225  32.325 184.123  0.00  0.00    +0.000 A 
ATOM     14  C   UNL     1      50.176  31.836 182.896  0.00  0.00    +0.000 A 
ATOM     15  C   UNL     1      49.450  32.551 181.984  0.00  0.00    +0.000 A 
ATOM     16  C   UNL     1      48.681  33.621 182.376  0.00  0.00    +0.000 A 
ENDBRANCH  10  11
ENDBRANCH   3   9
BRANCH   5  17
ATOM     17  O   UNL     1      43.491  37.594 186.851  0.00  0.00    +0.000 OA
ATOM     18  C   UNL     1      43.376  36.436 187.666  0.00  0.00    +0.000 C 
ENDBRANCH   5  17
TORSDOF 4
ENDMDL
