MODEL 1
REMARK VINA RESULT:    -7.461      0.000      0.000
REMARK INTER + INTRA:         -10.158
REMARK INTER:                  -9.659
REMARK INTRA:                  -0.499
REMARK UNBOUND:                -0.517
REMARK  Name = 
REMARK  7 active torsions:
REMARK  status: ('A' for Active; 'I' for Inactive)
REMARK    1  A    between atoms: C_1  and  O_2
REMARK    2  A    between atoms: O_2  and  C_3
REMARK    3  A    between atoms: C_5  and  C_6
REMARK    4  A    between atoms: C_7  and  C_8
REMARK    5  A    between atoms: C_8  and  C_10
REMARK    6  A    between atoms: C_13  and  O_14
REMARK    7  A    between atoms: C_19  and  O_20
REMARK                            x       y       z     vdW  Elec       q    Type
REMARK                         _______ _______ _______ _____ _____    ______ ____
ROOT
ATOM      1  C   UNL     1      45.598  34.879 183.914  0.00  0.00    +0.000 C 
ATOM      2  C   UNL     1      46.832  35.309 183.532  0.00  0.00    +0.000 C 
ENDROOT
BRANCH   1   5
ATOM      3  C   UNL     1      44.036  37.635 185.975  0.00  0.00    +0.000 A 
ATOM      4  C   UNL     1      44.694  36.974 184.965  0.00  0.00    +0.000 A 
ATOM      5  C   UNL     1      44.852  35.603 185.023  0.00  0.00    +0.000 A 
ATOM      6  C   UNL     1      44.338  34.891 186.079  0.00  0.00    +0.000 A 
ATOM      7  C   UNL     1      43.651  35.539 187.083  0.00  0.00    +0.000 A 
ATOM      8  C   UNL     1      43.472  36.926 187.055  0.00  0.00    +0.000 A 
BRANCH   3  10
ATOM      9  C   UNL     1      44.765  39.618 184.918  0.00  0.00    +0.000 C 
ATOM     10  O   UNL     1      43.935  38.981 185.878  0.00  0.00    +0.000 OA
ENDBRANCH   3  10
BRANCH   8  11
ATOM     11  O   UNL     1      42.750  37.595 188.078  0.00  0.00    +0.000 OA
ATOM     12  H   UNL     1      42.182  38.387 187.853  0.00  0.00    +0.000 HD
ENDBRANCH   8  11
ENDBRANCH   1   5
BRANCH   2  13
ATOM     13  C   UNL     1      47.578  34.585 182.424  0.00  0.00    +0.000 C 
ATOM     14  O   UNL     1      47.265  34.788 181.210  0.00  0.00    +0.000 OA
BRANCH  13  15
ATOM     15  C   UNL     1      48.698  33.615 182.768  0.00  0.00    +0.000 A 
ATOM     16  C   UNL     1      49.220  32.887 181.723  0.00  0.00    +0.000 A 
ATOM     17  C   UNL     1      50.214  31.926 181.939  0.00  0.00    +0.000 A 
ATOM     18  C   UNL     1      50.672  31.746 183.260  0.00  0.00    +0.000 A 
ATOM     19  C   UNL     1      50.121  32.459 184.299  0.00  0.00    +0.000 A 
ATOM     20  C   UNL     1      49.141  33.399 184.050  0.00  0.00    +0.000 A 
BRANCH  18  21
ATOM     21  O   UNL     1      51.647  30.858 183.560  0.00  0.00    +0.000 OA
ATOM     22  H   UNL     1      51.422  29.890 183.674  0.00  0.00    +0.000 HD
ENDBRANCH  18  21
ENDBRANCH  13  15
ENDBRANCH   2  13
TORSDOF 6
ENDMDL
MODEL 2
REMARK VINA RESULT:    -7.398      1.514      7.681
REMARK INTER + INTRA:         -10.077
REMARK INTER:                  -9.548
REMARK INTRA:                  -0.529
REMARK UNBOUND:                -0.517
REMARK  Name = 
REMARK  7 active torsions:
REMARK  status: ('A' for Active; 'I' for Inactive)
REMARK    1  A    between atoms: C_1  and  O_2
REMARK    2  A    between atoms: O_2  and  C_3
REMARK    3  A    between atoms: C_5  and  C_6
REMARK    4  A    between atoms: C_7  and  C_8
REMARK    5  A    between atoms: C_8  and  C_10
REMARK    6  A    between atoms: C_13  and  O_14
REMARK    7  A    between atoms: C_19  and  O_20
REMARK                            x       y       z     vdW  Elec       q    Type
REMARK                         _______ _______ _______ _____ _____    ______ ____
ROOT
ATOM      1  C   UNL     1      47.863  34.966 183.766  0.00  0.00    +0.000 C 
ATOM      2  C   UNL     1      46.675  35.165 183.133  0.00  0.00    +0.000 C 
ENDROOT
BRANCH   1   5
ATOM      3  C   UNL     1      49.696  32.468 181.602  0.00  0.00    +0.000 A 
ATOM      4  C   UNL     1      48.891  33.511 181.995  0.00  0.00    +0.000 A 
ATOM      5  C   UNL     1      48.772  33.826 183.334  0.00  0.00    +0.000 A 
ATOM      6  C   UNL     1      49.470  33.114 184.278  0.00  0.00    +0.000 A 
ATOM      7  C   UNL     1      50.304  32.086 183.894  0.00  0.00    +0.000 A 
ATOM      8  C   UNL     1      50.448  31.740 182.546  0.00  0.00    +0.000 A 
BRANCH   3  10
ATOM      9  C   UNL     1      48.939  32.974 179.423  0.00  0.00    +0.000 C 
ATOM     10  O   UNL     1      49.754  32.188 180.279  0.00  0.00    +0.000 OA
ENDBRANCH   3  10
BRANCH   8  11
ATOM     11  O   UNL     1      51.319  30.693 182.145  0.00  0.00    +0.000 OA
ATOM     12  H   UNL     1      51.145  30.196 181.294  0.00  0.00    +0.000 HD
ENDBRANCH   8  11
ENDBRANCH   1   5
BRANCH   2  13
ATOM     13  C   UNL     1      45.767  36.305 183.564  0.00  0.00    +0.000 C 
ATOM     14  O   UNL     1      45.735  37.381 182.890  0.00  0.00    +0.000 OA
BRANCH  13  15
ATOM     15  C   UNL     1      44.899  36.158 184.804  0.00  0.00    +0.000 A 
ATOM     16  C   UNL     1      44.545  37.324 185.445  0.00  0.00    +0.000 A 
ATOM     17  C   UNL     1      43.796  37.299 186.626  0.00  0.00    +0.000 A 
ATOM     18  C   UNL     1      43.405  36.039 187.125  0.00  0.00    +0.000 A 
ATOM     19  C   UNL     1      43.791  34.881 186.492  0.00  0.00    +0.000 A 
ATOM     20  C   UNL     1      44.531  34.943 185.328  0.00  0.00    +0.000 A 
BRANCH  18  21
ATOM     21  O   UNL     1      42.660  35.918 188.247  0.00  0.00    +0.000 OA
ATOM     22  H   UNL     1      42.141  35.079 188.413  0.00  0.00    +0.000 HD
ENDBRANCH  18  21
ENDBRANCH  13  15
ENDBRANCH   2  13
TORSDOF 6
ENDMDL
MODEL 3
REMARK VINA RESULT:    -7.253      1.640      2.701
REMARK INTER + INTRA:          -9.890
REMARK INTER:                  -9.325
REMARK INTRA:                  -0.565
REMARK UNBOUND:                -0.517
REMARK  Name = 
REMARK  7 active torsions:
REMARK  status: ('A' for Active; 'I' for Inactive)
REMARK    1  A    between atoms: C_1  and  O_2
REMARK    2  A    between atoms: O_2  and  C_3
REMARK    3  A    between atoms: C_5  and  C_6
REMARK    4  A    between atoms: C_7  and  C_8
REMARK    5  A    between atoms: C_8  and  C_10
REMARK    6  A    between atoms: C_13  and  O_14
REMARK    7  A    between atoms: C_19  and  O_20
REMARK                            x       y       z     vdW  Elec       q    Type
REMARK                         _______ _______ _______ _____ _____    ______ ____
ROOT
ATOM      1  C   UNL     1      46.141  36.371 182.815  0.00  0.00    +0.000 C 
ATOM      2  C   UNL     1      46.125  35.308 181.965  0.00  0.00    +0.000 C 
ENDROOT
BRANCH   1   5
ATOM      3  C   UNL     1      43.776  35.668 185.678  0.00  0.00    +0.000 A 
ATOM      4  C   UNL     1      44.789  35.530 184.758  0.00  0.00    +0.000 A 
ATOM      5  C   UNL     1      45.034  36.536 183.844  0.00  0.00    +0.000 A 
ATOM      6  C   UNL     1      44.281  37.685 183.859  0.00  0.00    +0.000 A 
ATOM      7  C   UNL     1      43.283  37.847 184.795  0.00  0.00    +0.000 A 
ATOM      8  C   UNL     1      43.008  36.849 185.736  0.00  0.00    +0.000 A 
BRANCH   3  10
ATOM      9  C   UNL     1      43.179  33.400 185.957  0.00  0.00    +0.000 C 
ATOM     10  O   UNL     1      43.564  34.640 186.531  0.00  0.00    +0.000 OA
ENDBRANCH   3  10
BRANCH   8  11
ATOM     11  O   UNL     1      41.992  37.019 186.713  0.00  0.00    +0.000 OA
ATOM     12  H   UNL     1      42.149  36.720 187.655  0.00  0.00    +0.000 HD
ENDBRANCH   8  11
ENDBRANCH   1   5
BRANCH   2  13
ATOM     13  C   UNL     1      47.232  35.143 180.936  0.00  0.00    +0.000 C 
ATOM     14  O   UNL     1      47.101  35.648 179.777  0.00  0.00    +0.000 OA
BRANCH  13  15
ATOM     15  C   UNL     1      48.493  34.372 181.292  0.00  0.00    +0.000 A 
ATOM     16  C   UNL     1      48.331  33.280 182.115  0.00  0.00    +0.000 A 
ATOM     17  C   UNL     1      49.433  32.535 182.549  0.00  0.00    +0.000 A 
ATOM     18  C   UNL     1      50.708  32.933 182.099  0.00  0.00    +0.000 A 
ATOM     19  C   UNL     1      50.859  34.043 181.301  0.00  0.00    +0.000 A 
ATOM     20  C   UNL     1      49.749  34.756 180.892  0.00  0.00    +0.000 A 
BRANCH  18  21
ATOM     21  O   UNL     1      51.828  32.259 182.447  0.00  0.00    +0.000 OA
ATOM     22  H   UNL     1      52.541  32.717 182.979  0.00  0.00    +0.000 HD
ENDBRANCH  18  21
ENDBRANCH  13  15
ENDBRANCH   2  13
TORSDOF 6
ENDMDL
MODEL 4
REMARK VINA RESULT:    -7.106      1.501      2.174
REMARK INTER + INTRA:          -9.700
REMARK INTER:                  -9.197
REMARK INTRA:                  -0.503
REMARK UNBOUND:                -0.517
REMARK  Name = 
REMARK  7 active torsions:
REMARK  status: ('A' for Active; 'I' for Inactive)
REMARK    1  A    between atoms: C_1  and  O_2
REMARK    2  A    between atoms: O_2  and  C_3
REMARK    3  A    between atoms: C_5  and  C_6
REMARK    4  A    between atoms: C_7  and  C_8
REMARK    5  A    between atoms: C_8  and  C_10
REMARK    6  A    between atoms: C_13  and  O_14
REMARK    7  A    between atoms: C_19  and  O_20
REMARK                            x       y       z     vdW  Elec       q    Type
REMARK                         _______ _______ _______ _____ _____    ______ ____
ROOT
ATOM      1  C   UNL     1      47.050  36.307 182.785  0.00  0.00    +0.000 C 
ATOM      2  C   UNL     1      46.849  34.970 182.629  0.00  0.00    +0.000 C 
ENDROOT
BRANCH   1   5
ATOM      3  C   UNL     1      44.027  37.533 184.692  0.00  0.00    +0.000 A 
ATOM      4  C   UNL     1      44.828  36.805 183.845  0.00  0.00    +0.000 A 
ATOM      5  C   UNL     1      46.173  37.100 183.740  0.00  0.00    +0.000 A 
ATOM      6  C   UNL     1      46.721  38.108 184.495  0.00  0.00    +0.000 A 
ATOM      7  C   UNL     1      45.935  38.825 185.371  0.00  0.00    +0.000 A 
ATOM      8  C   UNL     1      44.569  38.552 185.501  0.00  0.00    +0.000 A 
BRANCH   3  10
ATOM      9  C   UNL     1      42.353  35.914 184.298  0.00  0.00    +0.000 C 
ATOM     10  O   UNL     1      42.712  37.217 184.734  0.00  0.00    +0.000 OA
ENDBRANCH   3  10
BRANCH   8  11
ATOM     11  O   UNL     1      43.759  39.277 186.415  0.00  0.00    +0.000 OA
ATOM     12  H   UNL     1      42.812  39.495 186.179  0.00  0.00    +0.000 HD
ENDBRANCH   8  11
ENDBRANCH   1   5
BRANCH   2  13
ATOM     13  C   UNL     1      47.726  34.177 181.674  0.00  0.00    +0.000 C 
ATOM     14  O   UNL     1      47.538  34.262 180.420  0.00  0.00    +0.000 OA
BRANCH  13  15
ATOM     15  C   UNL     1      48.826  33.280 182.218  0.00  0.00    +0.000 A 
ATOM     16  C   UNL     1      49.552  32.568 181.290  0.00  0.00    +0.000 A 
ATOM     17  C   UNL     1      50.549  31.670 181.688  0.00  0.00    +0.000 A 
ATOM     18  C   UNL     1      50.792  31.536 183.070  0.00  0.00    +0.000 A 
ATOM     19  C   UNL     1      50.040  32.230 183.988  0.00  0.00    +0.000 A 
ATOM     20  C   UNL     1      49.063  33.107 183.560  0.00  0.00    +0.000 A 
BRANCH  18  21
ATOM     21  O   UNL     1      51.752  30.710 183.546  0.00  0.00    +0.000 OA
ATOM     22  H   UNL     1      52.516  31.084 184.072  0.00  0.00    +0.000 HD
ENDBRANCH  18  21
ENDBRANCH  13  15
ENDBRANCH   2  13
TORSDOF 6
ENDMDL
MODEL 5
REMARK VINA RESULT:    -7.022      1.856      7.754
REMARK INTER + INTRA:          -9.591
REMARK INTER:                  -9.001
REMARK INTRA:                  -0.590
REMARK UNBOUND:                -0.517
REMARK  Name = 
REMARK  7 active torsions:
REMARK  status: ('A' for Active; 'I' for Inactive)
REMARK    1  A    between atoms: C_1  and  O_2
REMARK    2  A    between atoms: O_2  and  C_3
REMARK    3  A    between atoms: C_5  and  C_6
REMARK    4  A    between atoms: C_7  and  C_8
REMARK    5  A    between atoms: C_8  and  C_10
REMARK    6  A    between atoms: C_13  and  O_14
REMARK    7  A    between atoms: C_19  and  O_20
REMARK                            x       y       z     vdW  Elec       q    Type
REMARK                         _______ _______ _______ _____ _____    ______ ____
ROOT
ATOM      1  C   UNL     1      46.604  35.690 182.019  0.00  0.00    +0.000 C 
ATOM      2  C   UNL     1      47.030  36.825 182.638  0.00  0.00    +0.000 C 
ENDROOT
BRANCH   1   5
ATOM      3  C   UNL     1      49.494  33.267 182.260  0.00  0.00    +0.000 A 
ATOM      4  C   UNL     1      48.579  34.242 182.579  0.00  0.00    +0.000 A 
ATOM      5  C   UNL     1      47.600  34.596 181.671  0.00  0.00    +0.000 A 
ATOM      6  C   UNL     1      47.524  33.964 180.454  0.00  0.00    +0.000 A 
ATOM      7  C   UNL     1      48.416  32.964 180.135  0.00  0.00    +0.000 A 
ATOM      8  C   UNL     1      49.420  32.581 181.031  0.00  0.00    +0.000 A 
BRANCH   3  10
ATOM      9  C   UNL     1      50.124  31.995 184.148  0.00  0.00    +0.000 C 
ATOM     10  O   UNL     1      50.446  32.981 183.177  0.00  0.00    +0.000 OA
ENDBRANCH   3  10
BRANCH   8  11
ATOM     11  O   UNL     1      50.331  31.539 180.713  0.00  0.00    +0.000 OA
ATOM     12  H   UNL     1      50.364  31.170 179.784  0.00  0.00    +0.000 HD
ENDBRANCH   8  11
ENDBRANCH   1   5
BRANCH   2  13
ATOM     13  C   UNL     1      46.033  37.919 182.986  0.00  0.00    +0.000 C 
ATOM     14  O   UNL     1      46.121  39.058 182.430  0.00  0.00    +0.000 OA
BRANCH  13  15
ATOM     15  C   UNL     1      44.934  37.652 184.001  0.00  0.00    +0.000 A 
ATOM     16  C   UNL     1      45.340  37.240 185.251  0.00  0.00    +0.000 A 
ATOM     17  C   UNL     1      44.408  36.914 186.241  0.00  0.00    +0.000 A 
ATOM     18  C   UNL     1      43.041  37.037 185.917  0.00  0.00    +0.000 A 
ATOM     19  C   UNL     1      42.648  37.420 184.656  0.00  0.00    +0.000 A 
ATOM     20  C   UNL     1      43.595  37.734 183.702  0.00  0.00    +0.000 A 
BRANCH  18  21
ATOM     21  O   UNL     1      42.069  36.766 186.818  0.00  0.00    +0.000 OA
ATOM     22  H   UNL     1      41.150  36.526 186.504  0.00  0.00    +0.000 HD
ENDBRANCH  18  21
ENDBRANCH  13  15
ENDBRANCH   2  13
TORSDOF 6
ENDMDL
MODEL 6
REMARK VINA RESULT:    -6.947      2.559      7.974
REMARK INTER + INTRA:          -9.494
REMARK INTER:                  -8.912
REMARK INTRA:                  -0.582
REMARK UNBOUND:                -0.517
REMARK  Name = 
REMARK  7 active torsions:
REMARK  status: ('A' for Active; 'I' for Inactive)
REMARK    1  A    between atoms: C_1  and  O_2
REMARK    2  A    between atoms: O_2  and  C_3
REMARK    3  A    between atoms: C_5  and  C_6
REMARK    4  A    between atoms: C_7  and  C_8
REMARK    5  A    between atoms: C_8  and  C_10
REMARK    6  A    between atoms: C_13  and  O_14
REMARK    7  A    between atoms: C_19  and  O_20
REMARK                            x       y       z     vdW  Elec       q    Type
REMARK                         _______ _______ _______ _____ _____    ______ ____
ROOT
ATOM      1  C   UNL     1      46.198  37.402 182.197  0.00  0.00    +0.000 C 
ATOM      2  C   UNL     1      45.619  38.621 182.021  0.00  0.00    +0.000 C 
ENDROOT
BRANCH   1   5
ATOM      3  C   UNL     1      48.702  35.200 180.417  0.00  0.00    +0.000 A 
ATOM      4  C   UNL     1      47.867  35.710 181.384  0.00  0.00    +0.000 A 
ATOM      5  C   UNL     1      47.103  36.829 181.118  0.00  0.00    +0.000 A 
ATOM      6  C   UNL     1      47.157  37.427 179.883  0.00  0.00    +0.000 A 
ATOM      7  C   UNL     1      47.966  36.907 178.896  0.00  0.00    +0.000 A 
ATOM      8  C   UNL     1      48.754  35.776 179.131  0.00  0.00    +0.000 A 
BRANCH   3  10
ATOM      9  C   UNL     1      48.816  32.851 180.633  0.00  0.00    +0.000 C 
ATOM     10  O   UNL     1      49.446  34.119 180.743  0.00  0.00    +0.000 OA
ENDBRANCH   3  10
BRANCH   8  11
ATOM     11  O   UNL     1      49.576  35.227 178.112  0.00  0.00    +0.000 OA
ATOM     12  H   UNL     1      50.421  34.749 178.355  0.00  0.00    +0.000 HD
ENDBRANCH   8  11
ENDBRANCH   1   5
BRANCH   2  13
ATOM     13  C   UNL     1      44.714  39.194 183.099  0.00  0.00    +0.000 C 
ATOM     14  O   UNL     1      44.395  40.424 183.072  0.00  0.00    +0.000 OA
BRANCH  13  15
ATOM     15  C   UNL     1      44.193  38.298 184.211  0.00  0.00    +0.000 A 
ATOM     16  C   UNL     1      42.969  37.704 183.997  0.00  0.00    +0.000 A 
ATOM     17  C   UNL     1      42.373  36.905 184.979  0.00  0.00    +0.000 A 
ATOM     18  C   UNL     1      43.079  36.719 186.186  0.00  0.00    +0.000 A 
ATOM     19  C   UNL     1      44.286  37.342 186.399  0.00  0.00    +0.000 A 
ATOM     20  C   UNL     1      44.845  38.124 185.408  0.00  0.00    +0.000 A 
BRANCH  18  21
ATOM     21  O   UNL     1      42.592  35.945 187.182  0.00  0.00    +0.000 OA
ATOM     22  H   UNL     1      41.647  35.619 187.145  0.00  0.00    +0.000 HD
ENDBRANCH  18  21
ENDBRANCH  13  15
ENDBRANCH   2  13
TORSDOF 6
ENDMDL
MODEL 7
REMARK VINA RESULT:    -6.821      2.529      3.879
REMARK INTER + INTRA:          -9.332
REMARK INTER:                  -8.884
REMARK INTRA:                  -0.448
REMARK UNBOUND:                -0.517
REMARK  Name = 
REMARK  7 active torsions:
REMARK  status: ('A' for Active; 'I' for Inactive)
REMARK    1  A    between atoms: C_1  and  O_2
REMARK    2  A    between atoms: O_2  and  C_3
REMARK    3  A    between atoms: C_5  and  C_6
REMARK    4  A    between atoms: C_7  and  C_8
REMARK    5  A    between atoms: C_8  and  C_10
REMARK    6  A    between atoms: C_13  and  O_14
REMARK    7  A    between atoms: C_19  and  O_20
REMARK                            x       y       z     vdW  Elec       q    Type
REMARK                         _______ _______ _______ _____ _____    ______ ____
ROOT
ATOM      1  C   UNL     1      46.745  37.291 180.482  0.00  0.00    +0.000 C 
ATOM      2  C   UNL     1      47.380  36.340 181.220  0.00  0.00    +0.000 C 
ENDROOT
BRANCH   1   5
ATOM      3  C   UNL     1      45.209  39.437 183.188  0.00  0.00    +0.000 A 
ATOM      4  C   UNL     1      45.923  38.446 182.556  0.00  0.00    +0.000 A 
ATOM      5  C   UNL     1      45.972  38.401 181.177  0.00  0.00    +0.000 A 
ATOM      6  C   UNL     1      45.324  39.354 180.429  0.00  0.00    +0.000 A 
ATOM      7  C   UNL     1      44.630  40.369 181.051  0.00  0.00    +0.000 A 
ATOM      8  C   UNL     1      44.560  40.445 182.446  0.00  0.00    +0.000 A 
BRANCH   3  10
ATOM      9  C   UNL     1      44.199  38.578 185.143  0.00  0.00    +0.000 C 
ATOM     10  O   UNL     1      45.174  39.416 184.540  0.00  0.00    +0.000 OA
ENDBRANCH   3  10
BRANCH   8  11
ATOM     11  O   UNL     1      43.861  41.499 183.091  0.00  0.00    +0.000 OA
ATOM     12  H   UNL     1      42.967  41.789 182.749  0.00  0.00    +0.000 HD
ENDBRANCH   8  11
ENDBRANCH   1   5
BRANCH   2  13
ATOM     13  C   UNL     1      48.152  35.231 180.526  0.00  0.00    +0.000 C 
ATOM     14  O   UNL     1      48.040  35.069 179.271  0.00  0.00    +0.000 OA
BRANCH  13  15
ATOM     15  C   UNL     1      49.057  34.314 181.333  0.00  0.00    +0.000 A 
ATOM     16  C   UNL     1      48.433  33.446 182.201  0.00  0.00    +0.000 A 
ATOM     17  C   UNL     1      49.174  32.599 183.031  0.00  0.00    +0.000 A 
ATOM     18  C   UNL     1      50.580  32.655 182.933  0.00  0.00    +0.000 A 
ATOM     19  C   UNL     1      51.191  33.546 182.084  0.00  0.00    +0.000 A 
ATOM     20  C   UNL     1      50.428  34.369 181.278  0.00  0.00    +0.000 A 
BRANCH  18  21
ATOM     21  O   UNL     1      51.377  31.856 183.679  0.00  0.00    +0.000 OA
ATOM     22  H   UNL     1      50.985  31.080 184.172  0.00  0.00    +0.000 HD
ENDBRANCH  18  21
ENDBRANCH  13  15
ENDBRANCH   2  13
TORSDOF 6
ENDMDL
MODEL 8
REMARK VINA RESULT:    -6.749      1.398      7.701
REMARK INTER + INTRA:          -9.238
REMARK INTER:                  -8.721
REMARK INTRA:                  -0.517
REMARK UNBOUND:                -0.517
REMARK  Name = 
REMARK  7 active torsions:
REMARK  status: ('A' for Active; 'I' for Inactive)
REMARK    1  A    between atoms: C_1  and  O_2
REMARK    2  A    between atoms: O_2  and  C_3
REMARK    3  A    between atoms: C_5  and  C_6
REMARK    4  A    between atoms: C_7  and  C_8
REMARK    5  A    between atoms: C_8  and  C_10
REMARK    6  A    between atoms: C_13  and  O_14
REMARK    7  A    between atoms: C_19  and  O_20
REMARK                            x       y       z     vdW  Elec       q    Type
REMARK                         _______ _______ _______ _____ _____    ______ ____
ROOT
ATOM      1  C   UNL     1      47.333  34.858 182.079  0.00  0.00    +0.000 C 
ATOM      2  C   UNL     1      47.419  36.144 182.516  0.00  0.00    +0.000 C 
ENDROOT
BRANCH   1   5
ATOM      3  C   UNL     1      50.131  32.821 183.599  0.00  0.00    +0.000 A 
ATOM      4  C   UNL     1      49.039  33.647 183.470  0.00  0.00    +0.000 A 
ATOM      5  C   UNL     1      48.527  33.927 182.219  0.00  0.00    +0.000 A 
ATOM      6  C   UNL     1      49.093  33.369 181.098  0.00  0.00    +0.000 A 
ATOM      7  C   UNL     1      50.169  32.516 181.216  0.00  0.00    +0.000 A 
ATOM      8  C   UNL     1      50.712  32.211 182.469  0.00  0.00    +0.000 A 
BRANCH   3  10
ATOM      9  C   UNL     1      50.939  33.751 185.614  0.00  0.00    +0.000 C 
ATOM     10  O   UNL     1      50.605  32.604 184.847  0.00  0.00    +0.000 OA
ENDBRANCH   3  10
BRANCH   8  11
ATOM     11  O   UNL     1      51.809  31.319 182.597  0.00  0.00    +0.000 OA
ATOM     12  H   UNL     1      52.593  31.399 181.980  0.00  0.00    +0.000 HD
ENDBRANCH   8  11
ENDBRANCH   1   5
BRANCH   2  13
ATOM     13  C   UNL     1      46.225  37.074 182.377  0.00  0.00    +0.000 C 
ATOM     14  O   UNL     1      45.860  37.470 181.226  0.00  0.00    +0.000 OA
BRANCH  13  15
ATOM     15  C   UNL     1      45.470  37.533 183.614  0.00  0.00    +0.000 A 
ATOM     16  C   UNL     1      45.091  36.550 184.500  0.00  0.00    +0.000 A 
ATOM     17  C   UNL     1      44.342  36.858 185.642  0.00  0.00    +0.000 A 
ATOM     18  C   UNL     1      44.007  38.210 185.857  0.00  0.00    +0.000 A 
ATOM     19  C   UNL     1      44.366  39.178 184.949  0.00  0.00    +0.000 A 
ATOM     20  C   UNL     1      45.104  38.839 183.832  0.00  0.00    +0.000 A 
BRANCH  18  21
ATOM     21  O   UNL     1      43.307  38.605 186.945  0.00  0.00    +0.000 OA
ATOM     22  H   UNL     1      42.423  39.060 186.832  0.00  0.00    +0.000 HD
ENDBRANCH  18  21
ENDBRANCH  13  15
ENDBRANCH   2  13
TORSDOF 6
ENDMDL
MODEL 9
REMARK VINA RESULT:    -6.716      3.512      8.105
REMARK INTER + INTRA:          -9.196
REMARK INTER:                  -8.702
REMARK INTRA:                  -0.495
REMARK UNBOUND:                -0.517
REMARK  Name = 
REMARK  7 active torsions:
REMARK  status: ('A' for Active; 'I' for Inactive)
REMARK    1  A    between atoms: C_1  and  O_2
REMARK    2  A    between atoms: O_2  and  C_3
REMARK    3  A    between atoms: C_5  and  C_6
REMARK    4  A    between atoms: C_7  and  C_8
REMARK    5  A    between atoms: C_8  and  C_10
REMARK    6  A    between atoms: C_13  and  O_14
REMARK    7  A    between atoms: C_19  and  O_20
REMARK                            x       y       z     vdW  Elec       q    Type
REMARK                         _______ _______ _______ _____ _____    ______ ____
ROOT
ATOM      1  C   UNL     1      47.343  35.312 180.373  0.00  0.00    +0.000 C 
ATOM      2  C   UNL     1      47.498  36.662 180.290  0.00  0.00    +0.000 C 
ENDROOT
BRANCH   1   5
ATOM      3  C   UNL     1      50.142  34.049 182.576  0.00  0.00    +0.000 A 
ATOM      4  C   UNL     1      49.109  34.814 182.089  0.00  0.00    +0.000 A 
ATOM      5  C   UNL     1      48.470  34.452 180.919  0.00  0.00    +0.000 A 
ATOM      6  C   UNL     1      48.851  33.316 180.247  0.00  0.00    +0.000 A 
ATOM      7  C   UNL     1      49.865  32.524 180.741  0.00  0.00    +0.000 A 
ATOM      8  C   UNL     1      50.532  32.863 181.923  0.00  0.00    +0.000 A 
BRANCH   3  10
ATOM      9  C   UNL     1      50.199  34.004 184.937  0.00  0.00    +0.000 C 
ATOM     10  O   UNL     1      50.747  34.468 183.711  0.00  0.00    +0.000 OA
ENDBRANCH   3  10
BRANCH   8  11
ATOM     11  O   UNL     1      51.566  32.040 182.445  0.00  0.00    +0.000 OA
ATOM     12  H   UNL     1      51.471  31.636 183.355  0.00  0.00    +0.000 HD
ENDBRANCH   8  11
ENDBRANCH   1   5
BRANCH   2  13
ATOM     13  C   UNL     1      46.371  37.523 179.743  0.00  0.00    +0.000 C 
ATOM     14  O   UNL     1      46.024  37.416 178.526  0.00  0.00    +0.000 OA
BRANCH  13  15
ATOM     15  C   UNL     1      45.660  38.513 180.652  0.00  0.00    +0.000 A 
ATOM     16  C   UNL     1      45.225  39.680 180.064  0.00  0.00    +0.000 A 
ATOM     17  C   UNL     1      44.610  40.683 180.822  0.00  0.00    +0.000 A 
ATOM     18  C   UNL     1      44.439  40.447 182.201  0.00  0.00    +0.000 A 
ATOM     19  C   UNL     1      44.905  39.291 182.781  0.00  0.00    +0.000 A 
ATOM     20  C   UNL     1      45.508  38.322 182.003  0.00  0.00    +0.000 A 
BRANCH  18  21
ATOM     21  O   UNL     1      43.834  41.349 183.008  0.00  0.00    +0.000 OA
ATOM     22  H   UNL     1      42.871  41.233 183.253  0.00  0.00    +0.000 HD
ENDBRANCH  18  21
ENDBRANCH  13  15
ENDBRANCH   2  13
TORSDOF 6
ENDMDL
