MODEL 1
REMARK VINA RESULT:    -7.337      0.000      0.000
REMARK INTER + INTRA:          10.271
REMARK INTER:                  -8.665
REMARK INTRA:                  18.936
REMARK UNBOUND:                18.895
REMARK  Name = 
REMARK  5 active torsions:
REMARK  status: ('A' for Active; 'I' for Inactive)
REMARK    1  A    between atoms: C_1  and  O_2
REMARK    2  A    between atoms: O_2  and  C_3
REMARK    3  A    between atoms: C_5  and  O_6
REMARK    4  A    between atoms: O_6  and  C_7
REMARK    5  A    between atoms: C_9  and  C_10
REMARK                            x       y       z     vdW  Elec       q    Type
REMARK                         _______ _______ _______ _____ _____    ______ ____
ROOT
ATOM      1  C   UNL     1      46.366  34.215 182.347  0.00  0.00    +0.000 A 
ATOM      2  C   UNL     1      46.467  35.332 183.251  0.00  0.00    +0.000 A 
ATOM      3  C   UNL     1      47.757  35.904 183.546  0.00  0.00    +0.000 A 
ATOM      4  O   UNL     1      47.846  36.890 184.342  0.00  0.00    +0.000 OA
ATOM      5  C   UNL     1      49.008  35.328 182.904  0.00  0.00    +0.000 A 
ATOM      6  C   UNL     1      50.132  35.111 183.684  0.00  0.00    +0.000 A 
ATOM      7  C   UNL     1      51.307  34.856 182.938  0.00  0.00    +0.000 A 
ATOM      8  C   UNL     1      51.324  34.493 181.669  0.00  0.00    +0.000 A 
ATOM      9  C   UNL     1      50.163  34.670 180.969  0.00  0.00    +0.000 A 
ATOM     10  C   UNL     1      49.005  35.044 181.607  0.00  0.00    +0.000 A 
ATOM     11  O   UNL     1      45.162  33.680 182.072  0.00  0.00    +0.000 OA
ENDROOT
BRANCH   1  16
ATOM     12  C   UNL     1      48.895  33.295 179.767  0.00  0.00    +0.000 A 
ATOM     13  C   UNL     1      49.850  32.595 180.486  0.00  0.00    +0.000 A 
ATOM     14  C   UNL     1      49.464  32.300 181.815  0.00  0.00    +0.000 A 
ATOM     15  C   UNL     1      48.488  32.907 182.463  0.00  0.00    +0.000 A 
ATOM     16  C   UNL     1      47.617  33.639 181.706  0.00  0.00    +0.000 A 
ATOM     17  C   UNL     1      47.857  33.861 180.371  0.00  0.00    +0.000 A 
BRANCH  12  19
ATOM     18  C   UNL     1      48.390  34.734 177.836  0.00  0.00    +0.000 C 
ATOM     19  O   UNL     1      49.030  33.589 178.385  0.00  0.00    +0.000 OA
ENDBRANCH  12  19
BRANCH  14  20
ATOM     20  O   UNL     1      50.179  31.281 182.499  0.00  0.00    +0.000 OA
ATOM     21  C   UNL     1      50.228  31.279 183.919  0.00  0.00    +0.000 C 
ENDBRANCH  14  20
ENDBRANCH   1  16
TORSDOF 3
ENDMDL
MODEL 2
REMARK VINA RESULT:    -7.249      3.712      7.293
REMARK INTER + INTRA:          10.374
REMARK INTER:                  -8.582
REMARK INTRA:                  18.956
REMARK UNBOUND:                18.895
REMARK  Name = 
REMARK  5 active torsions:
REMARK  status: ('A' for Active; 'I' for Inactive)
REMARK    1  A    between atoms: C_1  and  O_2
REMARK    2  A    between atoms: O_2  and  C_3
REMARK    3  A    between atoms: C_5  and  O_6
REMARK    4  A    between atoms: O_6  and  C_7
REMARK    5  A    between atoms: C_9  and  C_10
REMARK                            x       y       z     vdW  Elec       q    Type
REMARK                         _______ _______ _______ _____ _____    ______ ____
ROOT
ATOM      1  C   UNL     1      47.355  36.879 184.331  0.00  0.00    +0.000 A 
ATOM      2  C   UNL     1      47.276  35.714 183.488  0.00  0.00    +0.000 A 
ATOM      3  C   UNL     1      45.990  35.186 183.110  0.00  0.00    +0.000 A 
ATOM      4  O   UNL     1      45.920  34.158 182.366  0.00  0.00    +0.000 OA
ATOM      5  C   UNL     1      44.718  35.859 183.600  0.00  0.00    +0.000 A 
ATOM      6  C   UNL     1      43.685  35.079 184.092  0.00  0.00    +0.000 A 
ATOM      7  C   UNL     1      42.462  35.776 184.240  0.00  0.00    +0.000 A 
ATOM      8  C   UNL     1      42.348  37.091 184.272  0.00  0.00    +0.000 A 
ATOM      9  C   UNL     1      43.428  37.806 183.837  0.00  0.00    +0.000 A 
ATOM     10  C   UNL     1      44.618  37.182 183.547  0.00  0.00    +0.000 A 
ATOM     11  O   UNL     1      48.556  37.372 184.686  0.00  0.00    +0.000 OA
ENDROOT
BRANCH   1  16
ATOM     12  C   UNL     1      44.660  39.418 184.773  0.00  0.00    +0.000 A 
ATOM     13  C   UNL     1      43.809  38.829 185.693  0.00  0.00    +0.000 A 
ATOM     14  C   UNL     1      44.324  37.646 186.275  0.00  0.00    +0.000 A 
ATOM     15  C   UNL     1      45.321  36.939 185.776  0.00  0.00    +0.000 A 
ATOM     16  C   UNL     1      46.084  37.552 184.821  0.00  0.00    +0.000 A 
ATOM     17  C   UNL     1      45.717  38.769 184.299  0.00  0.00    +0.000 A 
BRANCH  12  19
ATOM     18  C   UNL     1      44.937  40.970 182.884  0.00  0.00    +0.000 C 
ATOM     19  O   UNL     1      44.391  40.671 184.161  0.00  0.00    +0.000 OA
ENDBRANCH  12  19
BRANCH  14  20
ATOM     20  O   UNL     1      43.725  37.187 187.478  0.00  0.00    +0.000 OA
ATOM     21  C   UNL     1      43.807  35.814 187.832  0.00  0.00    +0.000 C 
ENDBRANCH  14  20
ENDBRANCH   1  16
TORSDOF 3
ENDMDL
MODEL 3
REMARK VINA RESULT:    -6.666      1.688      4.112
REMARK INTER + INTRA:          11.060
REMARK INTER:                  -7.935
REMARK INTRA:                  18.995
REMARK UNBOUND:                18.895
REMARK  Name = 
REMARK  5 active torsions:
REMARK  status: ('A' for Active; 'I' for Inactive)
REMARK    1  A    between atoms: C_1  and  O_2
REMARK    2  A    between atoms: O_2  and  C_3
REMARK    3  A    between atoms: C_5  and  O_6
REMARK    4  A    between atoms: O_6  and  C_7
REMARK    5  A    between atoms: C_9  and  C_10
REMARK                            x       y       z     vdW  Elec       q    Type
REMARK                         _______ _______ _______ _____ _____    ______ ____
ROOT
ATOM      1  C   UNL     1      48.726  34.447 178.206  0.00  0.00    +0.000 A 
ATOM      2  C   UNL     1      48.542  35.851 177.945  0.00  0.00    +0.000 A 
ATOM      3  C   UNL     1      48.245  36.751 179.031  0.00  0.00    +0.000 A 
ATOM      4  O   UNL     1      48.084  37.991 178.800  0.00  0.00    +0.000 OA
ATOM      5  C   UNL     1      48.125  36.219 180.448  0.00  0.00    +0.000 A 
ATOM      6  C   UNL     1      47.072  36.638 181.244  0.00  0.00    +0.000 A 
ATOM      7  C   UNL     1      47.224  36.315 182.613  0.00  0.00    +0.000 A 
ATOM      8  C   UNL     1      48.062  35.407 183.080  0.00  0.00    +0.000 A 
ATOM      9  C   UNL     1      49.038  34.983 182.223  0.00  0.00    +0.000 A 
ATOM     10  C   UNL     1      49.032  35.361 180.902  0.00  0.00    +0.000 A 
ATOM     11  O   UNL     1      49.003  33.605 177.193  0.00  0.00    +0.000 OA
ENDROOT
BRANCH   1  16
ATOM     12  C   UNL     1      49.661  33.028 181.525  0.00  0.00    +0.000 A 
ATOM     13  C   UNL     1      48.447  32.916 182.182  0.00  0.00    +0.000 A 
ATOM     14  C   UNL     1      47.323  33.155 181.355  0.00  0.00    +0.000 A 
ATOM     15  C   UNL     1      47.370  33.773 180.189  0.00  0.00    +0.000 A 
ATOM     16  C   UNL     1      48.606  33.914 179.623  0.00  0.00    +0.000 A 
ATOM     17  C   UNL     1      49.743  33.579 180.320  0.00  0.00    +0.000 A 
BRANCH  12  19
ATOM     18  C   UNL     1      51.083  31.460 182.778  0.00  0.00    +0.000 C 
ATOM     19  O   UNL     1      50.903  32.715 182.137  0.00  0.00    +0.000 OA
ENDBRANCH  12  19
BRANCH  14  20
ATOM     20  O   UNL     1      46.059  32.699 181.812  0.00  0.00    +0.000 OA
ATOM     21  C   UNL     1      45.029  33.635 182.100  0.00  0.00    +0.000 C 
ENDBRANCH  14  20
ENDBRANCH   1  16
TORSDOF 3
ENDMDL
MODEL 4
REMARK VINA RESULT:    -6.562      4.441      7.181
REMARK INTER + INTRA:          11.182
REMARK INTER:                  -7.796
REMARK INTRA:                  18.978
REMARK UNBOUND:                18.895
REMARK  Name = 
REMARK  5 active torsions:
REMARK  status: ('A' for Active; 'I' for Inactive)
REMARK    1  A    between atoms: C_1  and  O_2
REMARK    2  A    between atoms: O_2  and  C_3
REMARK    3  A    between atoms: C_5  and  O_6
REMARK    4  A    between atoms: O_6  and  C_7
REMARK    5  A    between atoms: C_9  and  C_10
REMARK                            x       y       z     vdW  Elec       q    Type
REMARK                         _______ _______ _______ _____ _____    ______ ____
ROOT
ATOM      1  C   UNL     1      44.577  40.646 183.451  0.00  0.00    +0.000 A 
ATOM      2  C   UNL     1      44.614  40.591 182.012  0.00  0.00    +0.000 A 
ATOM      3  C   UNL     1      44.928  39.352 181.347  0.00  0.00    +0.000 A 
ATOM      4  O   UNL     1      44.960  39.305 180.077  0.00  0.00    +0.000 OA
ATOM      5  C   UNL     1      45.220  38.105 182.163  0.00  0.00    +0.000 A 
ATOM      6  C   UNL     1      46.299  37.307 181.821  0.00  0.00    +0.000 A 
ATOM      7  C   UNL     1      46.299  36.041 182.452  0.00  0.00    +0.000 A 
ATOM      8  C   UNL     1      45.589  35.738 183.523  0.00  0.00    +0.000 A 
ATOM      9  C   UNL     1      44.580  36.601 183.848  0.00  0.00    +0.000 A 
ATOM     10  C   UNL     1      44.436  37.798 183.190  0.00  0.00    +0.000 A 
ATOM     11  O   UNL     1      44.285  41.803 184.073  0.00  0.00    +0.000 OA
ENDROOT
BRANCH   1  16
ATOM     12  C   UNL     1      44.074  37.691 185.669  0.00  0.00    +0.000 A 
ATOM     13  C   UNL     1      45.344  37.152 185.781  0.00  0.00    +0.000 A 
ATOM     14  C   UNL     1      46.364  37.967 185.236  0.00  0.00    +0.000 A 
ATOM     15  C   UNL     1      46.157  38.955 184.385  0.00  0.00    +0.000 A 
ATOM     16  C   UNL     1      44.869  39.398 184.267  0.00  0.00    +0.000 A 
ATOM     17  C   UNL     1      43.835  38.731 184.878  0.00  0.00    +0.000 A 
BRANCH  12  19
ATOM     18  C   UNL     1      42.933  36.732 187.626  0.00  0.00    +0.000 C 
ATOM     19  O   UNL     1      42.925  37.095 186.252  0.00  0.00    +0.000 OA
ENDBRANCH  12  19
BRANCH  14  20
ATOM     20  O   UNL     1      47.702  37.704 185.632  0.00  0.00    +0.000 OA
ATOM     21  C   UNL     1      48.694  37.445 184.648  0.00  0.00    +0.000 C 
ENDBRANCH  14  20
ENDBRANCH   1  16
TORSDOF 3
ENDMDL
MODEL 5
REMARK VINA RESULT:    -6.557      1.788      4.747
REMARK INTER + INTRA:          11.188
REMARK INTER:                  -7.769
REMARK INTRA:                  18.958
REMARK UNBOUND:                18.895
REMARK  Name = 
REMARK  5 active torsions:
REMARK  status: ('A' for Active; 'I' for Inactive)
REMARK    1  A    between atoms: C_1  and  O_2
REMARK    2  A    between atoms: O_2  and  C_3
REMARK    3  A    between atoms: C_5  and  O_6
REMARK    4  A    between atoms: O_6  and  C_7
REMARK    5  A    between atoms: C_9  and  C_10
REMARK                            x       y       z     vdW  Elec       q    Type
REMARK                         _______ _______ _______ _____ _____    ______ ____
ROOT
ATOM      1  C   UNL     1      48.751  33.183 179.511  0.00  0.00    +0.000 A 
ATOM      2  C   UNL     1      48.839  34.101 178.404  0.00  0.00    +0.000 A 
ATOM      3  C   UNL     1      48.369  35.455 178.554  0.00  0.00    +0.000 A 
ATOM      4  O   UNL     1      48.447  36.265 177.578  0.00  0.00    +0.000 OA
ATOM      5  C   UNL     1      47.781  35.913 179.878  0.00  0.00    +0.000 A 
ATOM      6  C   UNL     1      46.611  36.655 179.881  0.00  0.00    +0.000 A 
ATOM      7  C   UNL     1      46.323  37.266 181.124  0.00  0.00    +0.000 A 
ATOM      8  C   UNL     1      46.864  36.913 182.275  0.00  0.00    +0.000 A 
ATOM      9  C   UNL     1      47.977  36.124 182.208  0.00  0.00    +0.000 A 
ATOM     10  C   UNL     1      48.397  35.596 181.011  0.00  0.00    +0.000 A 
ATOM     11  O   UNL     1      49.189  31.918 179.371  0.00  0.00    +0.000 OA
ENDROOT
BRANCH   1  16
ATOM     12  C   UNL     1      48.504  34.207 183.087  0.00  0.00    +0.000 A 
ATOM     13  C   UNL     1      47.150  34.443 183.263  0.00  0.00    +0.000 A 
ATOM     14  C   UNL     1      46.351  34.035 182.169  0.00  0.00    +0.000 A 
ATOM     15  C   UNL     1      46.810  33.796 180.955  0.00  0.00    +0.000 A 
ATOM     16  C   UNL     1      48.163  33.641 180.835  0.00  0.00    +0.000 A 
ATOM     17  C   UNL     1      48.999  33.893 181.896  0.00  0.00    +0.000 A 
BRANCH  12  19
ATOM     18  C   UNL     1      50.073  33.329 184.766  0.00  0.00    +0.000 C 
ATOM     19  O   UNL     1      49.467  34.431 184.107  0.00  0.00    +0.000 OA
ENDBRANCH  12  19
BRANCH  14  20
ATOM     20  O   UNL     1      44.958  33.875 182.393  0.00  0.00    +0.000 OA
ATOM     21  C   UNL     1      44.344  34.493 183.516  0.00  0.00    +0.000 C 
ENDBRANCH  14  20
ENDBRANCH   1  16
TORSDOF 3
ENDMDL
MODEL 6
REMARK VINA RESULT:    -6.494      1.783      4.409
REMARK INTER + INTRA:          11.262
REMARK INTER:                  -7.686
REMARK INTRA:                  18.948
REMARK UNBOUND:                18.895
REMARK  Name = 
REMARK  5 active torsions:
REMARK  status: ('A' for Active; 'I' for Inactive)
REMARK    1  A    between atoms: C_1  and  O_2
REMARK    2  A    between atoms: O_2  and  C_3
REMARK    3  A    between atoms: C_5  and  O_6
REMARK    4  A    between atoms: O_6  and  C_7
REMARK    5  A    between atoms: C_9  and  C_10
REMARK                            x       y       z     vdW  Elec       q    Type
REMARK                         _______ _______ _______ _____ _____    ______ ____
ROOT
ATOM      1  C   UNL     1      47.034  37.202 184.130  0.00  0.00    +0.000 A 
ATOM      2  C   UNL     1      45.691  36.831 184.495  0.00  0.00    +0.000 A 
ATOM      3  C   UNL     1      45.115  35.614 183.982  0.00  0.00    +0.000 A 
ATOM      4  O   UNL     1      43.930  35.288 184.305  0.00  0.00    +0.000 OA
ATOM      5  C   UNL     1      45.925  34.722 183.056  0.00  0.00    +0.000 A 
ATOM      6  C   UNL     1      45.328  34.207 181.917  0.00  0.00    +0.000 A 
ATOM      7  C   UNL     1      46.070  33.173 181.299  0.00  0.00    +0.000 A 
ATOM      8  C   UNL     1      47.350  32.935 181.519  0.00  0.00    +0.000 A 
ATOM      9  C   UNL     1      47.898  33.527 182.622  0.00  0.00    +0.000 A 
ATOM     10  C   UNL     1      47.190  34.450 183.353  0.00  0.00    +0.000 A 
ATOM     11  O   UNL     1      47.572  38.339 184.608  0.00  0.00    +0.000 OA
ENDROOT
BRANCH   1  16
ATOM     12  C   UNL     1      49.635  34.818 182.921  0.00  0.00    +0.000 A 
ATOM     13  C   UNL     1      49.361  34.700 181.569  0.00  0.00    +0.000 A 
ATOM     14  C   UNL     1      48.397  35.622 181.096  0.00  0.00    +0.000 A 
ATOM     15  C   UNL     1      47.556  36.287 181.867  0.00  0.00    +0.000 A 
ATOM     16  C   UNL     1      47.844  36.310 183.204  0.00  0.00    +0.000 A 
ATOM     17  C   UNL     1      48.856  35.537 183.721  0.00  0.00    +0.000 A 
BRANCH  12  19
ATOM     18  C   UNL     1      50.583  33.850 184.974  0.00  0.00    +0.000 C 
ATOM     19  O   UNL     1      50.652  34.073 183.573  0.00  0.00    +0.000 OA
ENDBRANCH  12  19
BRANCH  14  20
ATOM     20  O   UNL     1      48.328  35.845 179.696  0.00  0.00    +0.000 OA
ATOM     21  C   UNL     1      49.063  35.013 178.808  0.00  0.00    +0.000 C 
ENDBRANCH  14  20
ENDBRANCH   1  16
TORSDOF 3
ENDMDL
MODEL 7
REMARK VINA RESULT:    -6.359      2.616      5.912
REMARK INTER + INTRA:          11.421
REMARK INTER:                  -7.554
REMARK INTRA:                  18.975
REMARK UNBOUND:                18.895
REMARK  Name = 
REMARK  5 active torsions:
REMARK  status: ('A' for Active; 'I' for Inactive)
REMARK    1  A    between atoms: C_1  and  O_2
REMARK    2  A    between atoms: O_2  and  C_3
REMARK    3  A    between atoms: C_5  and  O_6
REMARK    4  A    between atoms: O_6  and  C_7
REMARK    5  A    between atoms: C_9  and  C_10
REMARK                            x       y       z     vdW  Elec       q    Type
REMARK                         _______ _______ _______ _____ _____    ______ ____
ROOT
ATOM      1  C   UNL     1      46.785  34.559 181.776  0.00  0.00    +0.000 A 
ATOM      2  C   UNL     1      48.169  34.411 182.147  0.00  0.00    +0.000 A 
ATOM      3  C   UNL     1      48.714  35.201 183.221  0.00  0.00    +0.000 A 
ATOM      4  O   UNL     1      49.935  35.070 183.549  0.00  0.00    +0.000 OA
ATOM      5  C   UNL     1      47.830  36.191 183.961  0.00  0.00    +0.000 A 
ATOM      6  C   UNL     1      48.311  37.462 184.229  0.00  0.00    +0.000 A 
ATOM      7  C   UNL     1      47.531  38.185 185.162  0.00  0.00    +0.000 A 
ATOM      8  C   UNL     1      46.289  37.883 185.494  0.00  0.00    +0.000 A 
ATOM      9  C   UNL     1      45.851  36.637 185.142  0.00  0.00    +0.000 A 
ATOM     10  C   UNL     1      46.612  35.822 184.340  0.00  0.00    +0.000 A 
ATOM     11  O   UNL     1      46.275  33.822 180.772  0.00  0.00    +0.000 OA
ENDROOT
BRANCH   1  16
ATOM     12  C   UNL     1      44.137  35.922 184.019  0.00  0.00    +0.000 A 
ATOM     13  C   UNL     1      44.254  37.293 183.861  0.00  0.00    +0.000 A 
ATOM     14  C   UNL     1      45.126  37.677 182.815  0.00  0.00    +0.000 A 
ATOM     15  C   UNL     1      46.029  36.887 182.266  0.00  0.00    +0.000 A 
ATOM     16  C   UNL     1      45.901  35.549 182.515  0.00  0.00    +0.000 A 
ATOM     17  C   UNL     1      44.981  35.086 183.426  0.00  0.00    +0.000 A 
BRANCH  12  19
ATOM     18  C   UNL     1      43.489  34.026 185.447  0.00  0.00    +0.000 C 
ATOM     19  O   UNL     1      43.226  35.323 184.929  0.00  0.00    +0.000 OA
ENDBRANCH  12  19
BRANCH  14  20
ATOM     20  O   UNL     1      45.023  39.006 182.324  0.00  0.00    +0.000 OA
ATOM     21  C   UNL     1      44.497  40.031 183.156  0.00  0.00    +0.000 C 
ENDBRANCH  14  20
ENDBRANCH   1  16
TORSDOF 3
ENDMDL
MODEL 8
REMARK VINA RESULT:    -6.341      3.479      6.029
REMARK INTER + INTRA:          11.442
REMARK INTER:                  -7.517
REMARK INTRA:                  18.959
REMARK UNBOUND:                18.895
REMARK  Name = 
REMARK  5 active torsions:
REMARK  status: ('A' for Active; 'I' for Inactive)
REMARK    1  A    between atoms: C_1  and  O_2
REMARK    2  A    between atoms: O_2  and  C_3
REMARK    3  A    between atoms: C_5  and  O_6
REMARK    4  A    between atoms: O_6  and  C_7
REMARK    5  A    between atoms: C_9  and  C_10
REMARK                            x       y       z     vdW  Elec       q    Type
REMARK                         _______ _______ _______ _____ _____    ______ ____
ROOT
ATOM      1  C   UNL     1      44.825  39.632 184.694  0.00  0.00    +0.000 A 
ATOM      2  C   UNL     1      44.565  40.453 183.539  0.00  0.00    +0.000 A 
ATOM      3  C   UNL     1      44.925  39.981 182.226  0.00  0.00    +0.000 A 
ATOM      4  O   UNL     1      44.695  40.705 181.207  0.00  0.00    +0.000 OA
ATOM      5  C   UNL     1      45.580  38.620 182.060  0.00  0.00    +0.000 A 
ATOM      6  C   UNL     1      46.676  38.492 181.223  0.00  0.00    +0.000 A 
ATOM      7  C   UNL     1      47.013  37.151 180.922  0.00  0.00    +0.000 A 
ATOM      8  C   UNL     1      46.603  36.102 181.612  0.00  0.00    +0.000 A 
ATOM      9  C   UNL     1      45.561  36.309 182.472  0.00  0.00    +0.000 A 
ATOM     10  C   UNL     1      45.091  37.576 182.719  0.00  0.00    +0.000 A 
ATOM     11  O   UNL     1      44.489  40.072 185.920  0.00  0.00    +0.000 OA
ENDROOT
BRANCH   1  16
ATOM     12  C   UNL     1      45.283  35.933 184.603  0.00  0.00    +0.000 A 
ATOM     13  C   UNL     1      46.618  35.781 184.268  0.00  0.00    +0.000 A 
ATOM     14  C   UNL     1      47.355  36.989 184.287  0.00  0.00    +0.000 A 
ATOM     15  C   UNL     1      46.817  38.194 184.256  0.00  0.00    +0.000 A 
ATOM     16  C   UNL     1      45.480  38.271 184.528  0.00  0.00    +0.000 A 
ATOM     17  C   UNL     1      44.719  37.134 184.655  0.00  0.00    +0.000 A 
BRANCH  12  19
ATOM     18  C   UNL     1      44.064  34.370 186.061  0.00  0.00    +0.000 C 
ATOM     19  O   UNL     1      44.395  34.836 184.760  0.00  0.00    +0.000 OA
ENDBRANCH  12  19
BRANCH  14  20
ATOM     20  O   UNL     1      48.771  36.897 184.340  0.00  0.00    +0.000 OA
ATOM     21  C   UNL     1      49.416  35.678 183.999  0.00  0.00    +0.000 C 
ENDBRANCH  14  20
ENDBRANCH   1  16
TORSDOF 3
ENDMDL
MODEL 9
REMARK VINA RESULT:    -6.292      2.111      4.767
REMARK INTER + INTRA:          11.500
REMARK INTER:                  -7.395
REMARK INTRA:                  18.895
REMARK UNBOUND:                18.895
REMARK  Name = 
REMARK  5 active torsions:
REMARK  status: ('A' for Active; 'I' for Inactive)
REMARK    1  A    between atoms: C_1  and  O_2
REMARK    2  A    between atoms: O_2  and  C_3
REMARK    3  A    between atoms: C_5  and  O_6
REMARK    4  A    between atoms: O_6  and  C_7
REMARK    5  A    between atoms: C_9  and  C_10
REMARK                            x       y       z     vdW  Elec       q    Type
REMARK                         _______ _______ _______ _____ _____    ______ ____
ROOT
ATOM      1  C   UNL     1      47.203  37.909 180.816  0.00  0.00    +0.000 A 
ATOM      2  C   UNL     1      47.402  37.665 179.410  0.00  0.00    +0.000 A 
ATOM      3  C   UNL     1      47.479  36.312 178.919  0.00  0.00    +0.000 A 
ATOM      4  O   UNL     1      47.655  36.097 177.679  0.00  0.00    +0.000 OA
ATOM      5  C   UNL     1      47.351  35.145 179.884  0.00  0.00    +0.000 A 
ATOM      6  C   UNL     1      48.233  34.082 179.784  0.00  0.00    +0.000 A 
ATOM      7  C   UNL     1      47.842  32.942 180.524  0.00  0.00    +0.000 A 
ATOM      8  C   UNL     1      46.953  32.950 181.500  0.00  0.00    +0.000 A 
ATOM      9  C   UNL     1      46.156  34.058 181.587  0.00  0.00    +0.000 A 
ATOM     10  C   UNL     1      46.395  35.162 180.805  0.00  0.00    +0.000 A 
ATOM     11  O   UNL     1      47.131  39.172 181.275  0.00  0.00    +0.000 OA
ENDROOT
BRANCH   1  16
ATOM     12  C   UNL     1      45.714  35.458 183.199  0.00  0.00    +0.000 A 
ATOM     13  C   UNL     1      46.788  34.659 183.553  0.00  0.00    +0.000 A 
ATOM     14  C   UNL     1      48.037  35.141 183.095  0.00  0.00    +0.000 A 
ATOM     15  C   UNL     1      48.188  36.033 182.133  0.00  0.00    +0.000 A 
ATOM     16  C   UNL     1      47.074  36.743 181.780  0.00  0.00    +0.000 A 
ATOM     17  C   UNL     1      45.839  36.415 182.287  0.00  0.00    +0.000 A 
BRANCH  12  19
ATOM     18  C   UNL     1      44.171  34.470 184.840  0.00  0.00    +0.000 C 
ATOM     19  O   UNL     1      44.390  35.221 183.654  0.00  0.00    +0.000 OA
ENDBRANCH  12  19
BRANCH  14  20
ATOM     20  O   UNL     1      49.209  34.629 183.712  0.00  0.00    +0.000 OA
ATOM     21  C   UNL     1      50.389  34.437 182.944  0.00  0.00    +0.000 C 
ENDBRANCH  14  20
ENDBRANCH   1  16
TORSDOF 3
ENDMDL
