MODEL 1
REMARK VINA RESULT:    -6.408      0.000      0.000
REMARK INTER + INTRA:         -12.694
REMARK INTER:                 -10.663
REMARK INTRA:                  -2.030
REMARK UNBOUND:                -2.914
REMARK  Name = 
REMARK  10 active torsions:
REMARK  status: ('A' for Active; 'I' for Inactive)
REMARK    1  A    between atoms: C_2  and  C_3
REMARK    2  A    between atoms: C_2  and  C_14
REMARK    3  A    between atoms: C_3  and  C_4
REMARK    4  A    between atoms: C_4  and  C_5
REMARK    5  A    between atoms: C_5  and  C_6
REMARK    6  A    between atoms: C_6  and  C_7
REMARK    7  A    between atoms: C_10  and  O_11
REMARK    8  A    between atoms: C_14  and  C_15
REMARK    9  A    between atoms: C_15  and  C_16
REMARK   10  A    between atoms: C_19  and  O_20
REMARK                            x       y       z     vdW  Elec       q    Type
REMARK                         _______ _______ _______ _____ _____    ______ ____
ROOT
ATOM      1  O   UNL     1      46.625  38.893 185.418  0.00  0.00    +0.000 OA
ATOM      2  C   UNL     1      45.916  38.796 184.368  0.00  0.00    +0.000 C 
ENDROOT
BRANCH   2   3
ATOM      3  C   UNL     1      46.559  38.403 183.049  0.00  0.00    +0.000 C 
BRANCH   3   4
ATOM      4  C   UNL     1      46.063  37.028 182.632  0.00  0.00    +0.000 C 
BRANCH   4   5
ATOM      5  C   UNL     1      46.581  35.984 183.608  0.00  0.00    +0.000 C 
BRANCH   5   6
ATOM      6  C   UNL     1      46.512  34.610 182.963  0.00  0.00    +0.000 C 
BRANCH   6   7
ATOM      7  C   UNL     1      47.919  34.120 182.659  0.00  0.00    +0.000 A 
ATOM      8  C   UNL     1      48.936  34.696 183.388  0.00  0.00    +0.000 A 
ATOM      9  C   UNL     1      50.250  34.228 183.287  0.00  0.00    +0.000 A 
ATOM     10  C   UNL     1      50.489  33.136 182.427  0.00  0.00    +0.000 A 
ATOM     11  C   UNL     1      49.471  32.589 181.683  0.00  0.00    +0.000 A 
ATOM     12  C   UNL     1      48.185  33.077 181.807  0.00  0.00    +0.000 A 
BRANCH  10  13
ATOM     13  O   UNL     1      51.723  32.600 182.283  0.00  0.00    +0.000 OA
ATOM     14  H   UNL     1      51.916  31.990 181.514  0.00  0.00    +0.000 HD
ENDBRANCH  10  13
ENDBRANCH   6   7
ENDBRANCH   5   6
ENDBRANCH   4   5
ENDBRANCH   3   4
ENDBRANCH   2   3
BRANCH   2  15
ATOM     15  C   UNL     1      44.423  39.073 184.432  0.00  0.00    +0.000 C 
BRANCH  15  16
ATOM     16  C   UNL     1      43.862  38.532 185.737  0.00  0.00    +0.000 C 
BRANCH  16  17
ATOM     17  C   UNL     1      43.716  37.023 185.638  0.00  0.00    +0.000 A 
ATOM     18  C   UNL     1      42.964  36.471 184.625  0.00  0.00    +0.000 A 
ATOM     19  C   UNL     1      42.822  35.084 184.506  0.00  0.00    +0.000 A 
ATOM     20  C   UNL     1      43.490  34.276 185.448  0.00  0.00    +0.000 A 
ATOM     21  C   UNL     1      44.213  34.839 186.473  0.00  0.00    +0.000 A 
ATOM     22  C   UNL     1      44.332  36.212 186.561  0.00  0.00    +0.000 A 
BRANCH  20  23
ATOM     23  O   UNL     1      43.430  32.926 185.396  0.00  0.00    +0.000 OA
ATOM     24  H   UNL     1      44.218  32.402 185.074  0.00  0.00    +0.000 HD
ENDBRANCH  20  23
ENDBRANCH  16  17
ENDBRANCH  15  16
ENDBRANCH   2  15
TORSDOF 10
ENDMDL
MODEL 2
REMARK VINA RESULT:    -6.359      2.173      6.800
REMARK INTER + INTRA:         -12.619
REMARK INTER:                 -10.412
REMARK INTRA:                  -2.207
REMARK UNBOUND:                -2.914
REMARK  Name = 
REMARK  10 active torsions:
REMARK  status: ('A' for Active; 'I' for Inactive)
REMARK    1  A    between atoms: C_2  and  C_3
REMARK    2  A    between atoms: C_2  and  C_14
REMARK    3  A    between atoms: C_3  and  C_4
REMARK    4  A    between atoms: C_4  and  C_5
REMARK    5  A    between atoms: C_5  and  C_6
REMARK    6  A    between atoms: C_6  and  C_7
REMARK    7  A    between atoms: C_10  and  O_11
REMARK    8  A    between atoms: C_14  and  C_15
REMARK    9  A    between atoms: C_15  and  C_16
REMARK   10  A    between atoms: C_19  and  O_20
REMARK                            x       y       z     vdW  Elec       q    Type
REMARK                         _______ _______ _______ _____ _____    ______ ____
ROOT
ATOM      1  O   UNL     1      48.126  35.166 179.082  0.00  0.00    +0.000 OA
ATOM      2  C   UNL     1      47.603  34.496 180.027  0.00  0.00    +0.000 C 
ENDROOT
BRANCH   2   3
ATOM      3  C   UNL     1      46.613  35.158 180.971  0.00  0.00    +0.000 C 
BRANCH   3   4
ATOM      4  C   UNL     1      47.230  36.420 181.549  0.00  0.00    +0.000 C 
BRANCH   4   5
ATOM      5  C   UNL     1      47.395  36.261 183.053  0.00  0.00    +0.000 C 
BRANCH   5   6
ATOM      6  C   UNL     1      46.635  35.029 183.517  0.00  0.00    +0.000 C 
BRANCH   6   7
ATOM      7  C   UNL     1      45.418  35.456 184.321  0.00  0.00    +0.000 A 
ATOM      8  C   UNL     1      45.561  36.592 185.086  0.00  0.00    +0.000 A 
ATOM      9  C   UNL     1      44.468  37.151 185.758  0.00  0.00    +0.000 A 
ATOM     10  C   UNL     1      43.217  36.517 185.610  0.00  0.00    +0.000 A 
ATOM     11  C   UNL     1      43.095  35.366 184.869  0.00  0.00    +0.000 A 
ATOM     12  C   UNL     1      44.194  34.842 184.218  0.00  0.00    +0.000 A 
BRANCH  10  13
ATOM     13  O   UNL     1      42.101  36.998 186.204  0.00  0.00    +0.000 OA
ATOM     14  H   UNL     1      41.205  36.822 185.798  0.00  0.00    +0.000 HD
ENDBRANCH  10  13
ENDBRANCH   6   7
ENDBRANCH   5   6
ENDBRANCH   4   5
ENDBRANCH   3   4
ENDBRANCH   2   3
BRANCH   2  15
ATOM     15  C   UNL     1      47.967  33.033 180.212  0.00  0.00    +0.000 C 
BRANCH  15  16
ATOM     16  C   UNL     1      49.460  32.911 180.473  0.00  0.00    +0.000 C 
BRANCH  16  17
ATOM     17  C   UNL     1      49.756  33.294 181.914  0.00  0.00    +0.000 A 
ATOM     18  C   UNL     1      50.542  34.392 182.184  0.00  0.00    +0.000 A 
ATOM     19  C   UNL     1      50.821  34.773 183.502  0.00  0.00    +0.000 A 
ATOM     20  C   UNL     1      50.254  34.003 184.538  0.00  0.00    +0.000 A 
ATOM     21  C   UNL     1      49.495  32.892 184.255  0.00  0.00    +0.000 A 
ATOM     22  C   UNL     1      49.239  32.544 182.943  0.00  0.00    +0.000 A 
BRANCH  20  23
ATOM     23  O   UNL     1      50.449  34.310 185.840  0.00  0.00    +0.000 OA
ATOM     24  H   UNL     1      49.864  34.987 186.287  0.00  0.00    +0.000 HD
ENDBRANCH  20  23
ENDBRANCH  16  17
ENDBRANCH  15  16
ENDBRANCH   2  15
TORSDOF 10
ENDMDL
MODEL 3
REMARK VINA RESULT:    -6.277      2.231      5.456
REMARK INTER + INTRA:         -12.494
REMARK INTER:                  -9.267
REMARK INTRA:                  -3.226
REMARK UNBOUND:                -2.914
REMARK  Name = 
REMARK  10 active torsions:
REMARK  status: ('A' for Active; 'I' for Inactive)
REMARK    1  A    between atoms: C_2  and  C_3
REMARK    2  A    between atoms: C_2  and  C_14
REMARK    3  A    between atoms: C_3  and  C_4
REMARK    4  A    between atoms: C_4  and  C_5
REMARK    5  A    between atoms: C_5  and  C_6
REMARK    6  A    between atoms: C_6  and  C_7
REMARK    7  A    between atoms: C_10  and  O_11
REMARK    8  A    between atoms: C_14  and  C_15
REMARK    9  A    between atoms: C_15  and  C_16
REMARK   10  A    between atoms: C_19  and  O_20
REMARK                            x       y       z     vdW  Elec       q    Type
REMARK                         _______ _______ _______ _____ _____    ______ ____
ROOT
ATOM      1  O   UNL     1      46.449  41.150 180.181  0.00  0.00    +0.000 OA
ATOM      2  C   UNL     1      46.094  40.045 180.700  0.00  0.00    +0.000 C 
ENDROOT
BRANCH   2   3
ATOM      3  C   UNL     1      44.767  39.942 181.433  0.00  0.00    +0.000 C 
BRANCH   3   4
ATOM      4  C   UNL     1      44.849  40.708 182.742  0.00  0.00    +0.000 C 
BRANCH   4   5
ATOM      5  C   UNL     1      44.599  39.757 183.902  0.00  0.00    +0.000 C 
BRANCH   5   6
ATOM      6  C   UNL     1      43.754  38.588 183.425  0.00  0.00    +0.000 C 
BRANCH   6   7
ATOM      7  C   UNL     1      43.973  37.396 184.343  0.00  0.00    +0.000 A 
ATOM      8  C   UNL     1      43.599  36.167 183.846  0.00  0.00    +0.000 A 
ATOM      9  C   UNL     1      43.878  34.990 184.548  0.00  0.00    +0.000 A 
ATOM     10  C   UNL     1      44.570  35.109 185.772  0.00  0.00    +0.000 A 
ATOM     11  C   UNL     1      44.910  36.343 186.271  0.00  0.00    +0.000 A 
ATOM     12  C   UNL     1      44.619  37.485 185.551  0.00  0.00    +0.000 A 
BRANCH  10  13
ATOM     13  O   UNL     1      44.903  34.024 186.509  0.00  0.00    +0.000 OA
ATOM     14  H   UNL     1      45.538  34.118 187.276  0.00  0.00    +0.000 HD
ENDBRANCH  10  13
ENDBRANCH   6   7
ENDBRANCH   5   6
ENDBRANCH   4   5
ENDBRANCH   3   4
ENDBRANCH   2   3
BRANCH   2  15
ATOM     15  C   UNL     1      46.997  38.828 180.588  0.00  0.00    +0.000 C 
BRANCH  15  16
ATOM     16  C   UNL     1      46.149  37.566 180.598  0.00  0.00    +0.000 C 
BRANCH  16  17
ATOM     17  C   UNL     1      46.642  36.633 181.692  0.00  0.00    +0.000 A 
ATOM     18  C   UNL     1      47.279  37.150 182.799  0.00  0.00    +0.000 A 
ATOM     19  C   UNL     1      47.733  36.314 183.825  0.00  0.00    +0.000 A 
ATOM     20  C   UNL     1      47.499  34.930 183.692  0.00  0.00    +0.000 A 
ATOM     21  C   UNL     1      46.888  34.424 182.570  0.00  0.00    +0.000 A 
ATOM     22  C   UNL     1      46.452  35.277 181.575  0.00  0.00    +0.000 A 
BRANCH  20  23
ATOM     23  O   UNL     1      47.880  34.050 184.646  0.00  0.00    +0.000 OA
ATOM     24  H   UNL     1      48.647  34.269 185.250  0.00  0.00    +0.000 HD
ENDBRANCH  20  23
ENDBRANCH  16  17
ENDBRANCH  15  16
ENDBRANCH   2  15
TORSDOF 10
ENDMDL
MODEL 4
REMARK VINA RESULT:    -6.265      2.127      3.230
REMARK INTER + INTRA:         -12.476
REMARK INTER:                  -9.336
REMARK INTRA:                  -3.141
REMARK UNBOUND:                -2.914
REMARK  Name = 
REMARK  10 active torsions:
REMARK  status: ('A' for Active; 'I' for Inactive)
REMARK    1  A    between atoms: C_2  and  C_3
REMARK    2  A    between atoms: C_2  and  C_14
REMARK    3  A    between atoms: C_3  and  C_4
REMARK    4  A    between atoms: C_4  and  C_5
REMARK    5  A    between atoms: C_5  and  C_6
REMARK    6  A    between atoms: C_6  and  C_7
REMARK    7  A    between atoms: C_10  and  O_11
REMARK    8  A    between atoms: C_14  and  C_15
REMARK    9  A    between atoms: C_15  and  C_16
REMARK   10  A    between atoms: C_19  and  O_20
REMARK                            x       y       z     vdW  Elec       q    Type
REMARK                         _______ _______ _______ _____ _____    ______ ____
ROOT
ATOM      1  O   UNL     1      44.963  41.825 182.780  0.00  0.00    +0.000 OA
ATOM      2  C   UNL     1      44.717  40.587 182.630  0.00  0.00    +0.000 C 
ENDROOT
BRANCH   2   3
ATOM      3  C   UNL     1      44.600  39.999 181.234  0.00  0.00    +0.000 C 
BRANCH   3   4
ATOM      4  C   UNL     1      45.909  40.199 180.488  0.00  0.00    +0.000 C 
BRANCH   4   5
ATOM      5  C   UNL     1      46.893  39.112 180.888  0.00  0.00    +0.000 C 
BRANCH   5   6
ATOM      6  C   UNL     1      46.271  37.748 180.634  0.00  0.00    +0.000 C 
BRANCH   6   7
ATOM      7  C   UNL     1      46.639  36.803 181.766  0.00  0.00    +0.000 A 
ATOM      8  C   UNL     1      46.462  35.460 181.521  0.00  0.00    +0.000 A 
ATOM      9  C   UNL     1      46.893  34.496 182.440  0.00  0.00    +0.000 A 
ATOM     10  C   UNL     1      47.530  34.952 183.612  0.00  0.00    +0.000 A 
ATOM     11  C   UNL     1      47.674  36.296 183.859  0.00  0.00    +0.000 A 
ATOM     12  C   UNL     1      47.236  37.221 182.930  0.00  0.00    +0.000 A 
BRANCH  10  13
ATOM     13  O   UNL     1      48.000  34.093 184.546  0.00  0.00    +0.000 OA
ATOM     14  H   UNL     1      48.536  33.297 184.266  0.00  0.00    +0.000 HD
ENDBRANCH  10  13
ENDBRANCH   6   7
ENDBRANCH   5   6
ENDBRANCH   4   5
ENDBRANCH   3   4
ENDBRANCH   2   3
BRANCH   2  15
ATOM     15  C   UNL     1      44.541  39.695 183.848  0.00  0.00    +0.000 C 
BRANCH  15  16
ATOM     16  C   UNL     1      43.582  38.564 183.512  0.00  0.00    +0.000 C 
BRANCH  16  17
ATOM     17  C   UNL     1      43.940  37.336 184.333  0.00  0.00    +0.000 A 
ATOM     18  C   UNL     1      44.550  37.484 185.559  0.00  0.00    +0.000 A 
ATOM     19  C   UNL     1      44.881  36.370 186.339  0.00  0.00    +0.000 A 
ATOM     20  C   UNL     1      44.550  35.097 185.833  0.00  0.00    +0.000 A 
ATOM     21  C   UNL     1      43.967  34.960 184.595  0.00  0.00    +0.000 A 
ATOM     22  C   UNL     1      43.655  36.081 183.851  0.00  0.00    +0.000 A 
BRANCH  20  23
ATOM     23  O   UNL     1      44.809  33.966 186.528  0.00  0.00    +0.000 OA
ATOM     24  H   UNL     1      44.688  33.073 186.094  0.00  0.00    +0.000 HD
ENDBRANCH  20  23
ENDBRANCH  16  17
ENDBRANCH  15  16
ENDBRANCH   2  15
TORSDOF 10
ENDMDL
MODEL 5
REMARK VINA RESULT:    -6.201      2.678      4.220
REMARK INTER + INTRA:         -12.377
REMARK INTER:                  -9.961
REMARK INTRA:                  -2.416
REMARK UNBOUND:                -2.914
REMARK  Name = 
REMARK  10 active torsions:
REMARK  status: ('A' for Active; 'I' for Inactive)
REMARK    1  A    between atoms: C_2  and  C_3
REMARK    2  A    between atoms: C_2  and  C_14
REMARK    3  A    between atoms: C_3  and  C_4
REMARK    4  A    between atoms: C_4  and  C_5
REMARK    5  A    between atoms: C_5  and  C_6
REMARK    6  A    between atoms: C_6  and  C_7
REMARK    7  A    between atoms: C_10  and  O_11
REMARK    8  A    between atoms: C_14  and  C_15
REMARK    9  A    between atoms: C_15  and  C_16
REMARK   10  A    between atoms: C_19  and  O_20
REMARK                            x       y       z     vdW  Elec       q    Type
REMARK                         _______ _______ _______ _____ _____    ______ ____
ROOT
ATOM      1  O   UNL     1      48.337  37.614 178.007  0.00  0.00    +0.000 OA
ATOM      2  C   UNL     1      48.087  36.682 178.834  0.00  0.00    +0.000 C 
ENDROOT
BRANCH   2   3
ATOM      3  C   UNL     1      49.109  35.583 179.073  0.00  0.00    +0.000 C 
BRANCH   3   4
ATOM      4  C   UNL     1      48.420  34.229 179.026  0.00  0.00    +0.000 C 
BRANCH   4   5
ATOM      5  C   UNL     1      49.166  33.250 179.918  0.00  0.00    +0.000 C 
BRANCH   5   6
ATOM      6  C   UNL     1      48.317  32.926 181.136  0.00  0.00    +0.000 C 
BRANCH   6   7
ATOM      7  C   UNL     1      49.118  33.195 182.399  0.00  0.00    +0.000 A 
ATOM      8  C   UNL     1      49.300  34.517 182.737  0.00  0.00    +0.000 A 
ATOM      9  C   UNL     1      49.904  34.877 183.947  0.00  0.00    +0.000 A 
ATOM     10  C   UNL     1      50.302  33.836 184.811  0.00  0.00    +0.000 A 
ATOM     11  C   UNL     1      50.142  32.520 184.449  0.00  0.00    +0.000 A 
ATOM     12  C   UNL     1      49.541  32.201 183.247  0.00  0.00    +0.000 A 
BRANCH  10  13
ATOM     13  O   UNL     1      50.873  34.088 186.012  0.00  0.00    +0.000 OA
ATOM     14  H   UNL     1      50.752  34.981 186.444  0.00  0.00    +0.000 HD
ENDBRANCH  10  13
ENDBRANCH   6   7
ENDBRANCH   5   6
ENDBRANCH   4   5
ENDBRANCH   3   4
ENDBRANCH   2   3
BRANCH   2  15
ATOM     15  C   UNL     1      46.766  36.666 179.585  0.00  0.00    +0.000 C 
BRANCH  15  16
ATOM     16  C   UNL     1      46.889  37.504 180.847  0.00  0.00    +0.000 C 
BRANCH  16  17
ATOM     17  C   UNL     1      46.481  36.671 182.050  0.00  0.00    +0.000 A 
ATOM     18  C   UNL     1      45.921  35.426 181.866  0.00  0.00    +0.000 A 
ATOM     19  C   UNL     1      45.545  34.635 182.957  0.00  0.00    +0.000 A 
ATOM     20  C   UNL     1      45.779  35.150 184.248  0.00  0.00    +0.000 A 
ATOM     21  C   UNL     1      46.312  36.406 184.420  0.00  0.00    +0.000 A 
ATOM     22  C   UNL     1      46.671  37.161 183.320  0.00  0.00    +0.000 A 
BRANCH  20  23
ATOM     23  O   UNL     1      45.471  34.446 185.360  0.00  0.00    +0.000 OA
ATOM     24  H   UNL     1      44.540  34.466 185.724  0.00  0.00    +0.000 HD
ENDBRANCH  20  23
ENDBRANCH  16  17
ENDBRANCH  15  16
ENDBRANCH   2  15
TORSDOF 10
ENDMDL
MODEL 6
REMARK VINA RESULT:    -6.183      2.084      3.445
REMARK INTER + INTRA:         -12.351
REMARK INTER:                 -10.749
REMARK INTRA:                  -1.602
REMARK UNBOUND:                -2.914
REMARK  Name = 
REMARK  10 active torsions:
REMARK  status: ('A' for Active; 'I' for Inactive)
REMARK    1  A    between atoms: C_2  and  C_3
REMARK    2  A    between atoms: C_2  and  C_14
REMARK    3  A    between atoms: C_3  and  C_4
REMARK    4  A    between atoms: C_4  and  C_5
REMARK    5  A    between atoms: C_5  and  C_6
REMARK    6  A    between atoms: C_6  and  C_7
REMARK    7  A    between atoms: C_10  and  O_11
REMARK    8  A    between atoms: C_14  and  C_15
REMARK    9  A    between atoms: C_15  and  C_16
REMARK   10  A    between atoms: C_19  and  O_20
REMARK                            x       y       z     vdW  Elec       q    Type
REMARK                         _______ _______ _______ _____ _____    ______ ____
ROOT
ATOM      1  O   UNL     1      46.231  36.407 181.383  0.00  0.00    +0.000 OA
ATOM      2  C   UNL     1      46.300  35.217 181.826  0.00  0.00    +0.000 C 
ENDROOT
BRANCH   2   3
ATOM      3  C   UNL     1      45.950  34.047 180.922  0.00  0.00    +0.000 C 
BRANCH   3   4
ATOM      4  C   UNL     1      47.014  32.971 181.050  0.00  0.00    +0.000 C 
BRANCH   4   5
ATOM      5  C   UNL     1      48.210  33.335 180.183  0.00  0.00    +0.000 C 
BRANCH   5   6
ATOM      6  C   UNL     1      49.426  32.549 180.643  0.00  0.00    +0.000 C 
BRANCH   6   7
ATOM      7  C   UNL     1      49.795  32.966 182.058  0.00  0.00    +0.000 A 
ATOM      8  C   UNL     1      50.258  34.253 182.213  0.00  0.00    +0.000 A 
ATOM      9  C   UNL     1      50.498  34.785 183.485  0.00  0.00    +0.000 A 
ATOM     10  C   UNL     1      50.232  33.960 184.598  0.00  0.00    +0.000 A 
ATOM     11  C   UNL     1      49.799  32.667 184.428  0.00  0.00    +0.000 A 
ATOM     12  C   UNL     1      49.572  32.174 183.158  0.00  0.00    +0.000 A 
BRANCH  10  13
ATOM     13  O   UNL     1      50.412  34.396 185.866  0.00  0.00    +0.000 OA
ATOM     14  H   UNL     1      50.020  35.269 186.154  0.00  0.00    +0.000 HD
ENDBRANCH  10  13
ENDBRANCH   6   7
ENDBRANCH   5   6
ENDBRANCH   4   5
ENDBRANCH   3   4
ENDBRANCH   2   3
BRANCH   2  15
ATOM     15  C   UNL     1      46.734  34.965 183.261  0.00  0.00    +0.000 C 
BRANCH  15  16
ATOM     16  C   UNL     1      46.772  36.283 184.018  0.00  0.00    +0.000 C 
BRANCH  16  17
ATOM     17  C   UNL     1      45.498  36.437 184.832  0.00  0.00    +0.000 A 
ATOM     18  C   UNL     1      44.673  35.352 185.027  0.00  0.00    +0.000 A 
ATOM     19  C   UNL     1      43.499  35.464 185.781  0.00  0.00    +0.000 A 
ATOM     20  C   UNL     1      43.205  36.721 186.347  0.00  0.00    +0.000 A 
ATOM     21  C   UNL     1      44.021  37.804 186.121  0.00  0.00    +0.000 A 
ATOM     22  C   UNL     1      45.172  37.658 185.371  0.00  0.00    +0.000 A 
BRANCH  20  23
ATOM     23  O   UNL     1      42.106  36.917 187.110  0.00  0.00    +0.000 OA
ATOM     24  H   UNL     1      42.166  36.829 188.104  0.00  0.00    +0.000 HD
ENDBRANCH  20  23
ENDBRANCH  16  17
ENDBRANCH  15  16
ENDBRANCH   2  15
TORSDOF 10
ENDMDL
MODEL 7
REMARK VINA RESULT:    -6.117      1.119      6.099
REMARK INTER + INTRA:         -12.249
REMARK INTER:                 -10.347
REMARK INTRA:                  -1.902
REMARK UNBOUND:                -2.914
REMARK  Name = 
REMARK  10 active torsions:
REMARK  status: ('A' for Active; 'I' for Inactive)
REMARK    1  A    between atoms: C_2  and  C_3
REMARK    2  A    between atoms: C_2  and  C_14
REMARK    3  A    between atoms: C_3  and  C_4
REMARK    4  A    between atoms: C_4  and  C_5
REMARK    5  A    between atoms: C_5  and  C_6
REMARK    6  A    between atoms: C_6  and  C_7
REMARK    7  A    between atoms: C_10  and  O_11
REMARK    8  A    between atoms: C_14  and  C_15
REMARK    9  A    between atoms: C_15  and  C_16
REMARK   10  A    between atoms: C_19  and  O_20
REMARK                            x       y       z     vdW  Elec       q    Type
REMARK                         _______ _______ _______ _____ _____    ______ ____
ROOT
ATOM      1  O   UNL     1      46.545  36.759 181.131  0.00  0.00    +0.000 OA
ATOM      2  C   UNL     1      46.364  37.260 182.284  0.00  0.00    +0.000 C 
ENDROOT
BRANCH   2   3
ATOM      3  C   UNL     1      45.566  38.544 182.438  0.00  0.00    +0.000 C 
BRANCH   3   4
ATOM      4  C   UNL     1      45.612  39.001 183.887  0.00  0.00    +0.000 C 
BRANCH   4   5
ATOM      5  C   UNL     1      44.196  39.210 184.398  0.00  0.00    +0.000 C 
BRANCH   5   6
ATOM      6  C   UNL     1      44.035  38.518 185.741  0.00  0.00    +0.000 C 
BRANCH   6   7
ATOM      7  C   UNL     1      43.936  37.016 185.530  0.00  0.00    +0.000 A 
ATOM      8  C   UNL     1      44.528  36.225 186.489  0.00  0.00    +0.000 A 
ATOM      9  C   UNL     1      44.383  34.834 186.467  0.00  0.00    +0.000 A 
ATOM     10  C   UNL     1      43.594  34.277 185.438  0.00  0.00    +0.000 A 
ATOM     11  C   UNL     1      43.034  35.075 184.470  0.00  0.00    +0.000 A 
ATOM     12  C   UNL     1      43.198  36.445 184.523  0.00  0.00    +0.000 A 
BRANCH  10  13
ATOM     13  O   UNL     1      43.379  32.944 185.350  0.00  0.00    +0.000 OA
ATOM     14  H   UNL     1      43.218  32.523 184.458  0.00  0.00    +0.000 HD
ENDBRANCH  10  13
ENDBRANCH   6   7
ENDBRANCH   5   6
ENDBRANCH   4   5
ENDBRANCH   3   4
ENDBRANCH   2   3
BRANCH   2  15
ATOM     15  C   UNL     1      46.944  36.576 183.510  0.00  0.00    +0.000 C 
BRANCH  15  16
ATOM     16  C   UNL     1      46.758  35.072 183.387  0.00  0.00    +0.000 C 
BRANCH  16  17
ATOM     17  C   UNL     1      48.101  34.415 183.117  0.00  0.00    +0.000 A 
ATOM     18  C   UNL     1      48.161  33.246 182.392  0.00  0.00    +0.000 A 
ATOM     19  C   UNL     1      49.386  32.626 182.121  0.00  0.00    +0.000 A 
ATOM     20  C   UNL     1      50.554  33.253 182.600  0.00  0.00    +0.000 A 
ATOM     21  C   UNL     1      50.480  34.404 183.347  0.00  0.00    +0.000 A 
ATOM     22  C   UNL     1      49.254  34.989 183.597  0.00  0.00    +0.000 A 
BRANCH  20  23
ATOM     23  O   UNL     1      51.783  32.740 182.364  0.00  0.00    +0.000 OA
ATOM     24  H   UNL     1      52.150  32.026 182.962  0.00  0.00    +0.000 HD
ENDBRANCH  20  23
ENDBRANCH  16  17
ENDBRANCH  15  16
ENDBRANCH   2  15
TORSDOF 10
ENDMDL
MODEL 8
REMARK VINA RESULT:    -6.101      2.250      6.963
REMARK INTER + INTRA:         -12.225
REMARK INTER:                  -9.538
REMARK INTRA:                  -2.686
REMARK UNBOUND:                -2.914
REMARK  Name = 
REMARK  10 active torsions:
REMARK  status: ('A' for Active; 'I' for Inactive)
REMARK    1  A    between atoms: C_2  and  C_3
REMARK    2  A    between atoms: C_2  and  C_14
REMARK    3  A    between atoms: C_3  and  C_4
REMARK    4  A    between atoms: C_4  and  C_5
REMARK    5  A    between atoms: C_5  and  C_6
REMARK    6  A    between atoms: C_6  and  C_7
REMARK    7  A    between atoms: C_10  and  O_11
REMARK    8  A    between atoms: C_14  and  C_15
REMARK    9  A    between atoms: C_15  and  C_16
REMARK   10  A    between atoms: C_19  and  O_20
REMARK                            x       y       z     vdW  Elec       q    Type
REMARK                         _______ _______ _______ _____ _____    ______ ____
ROOT
ATOM      1  O   UNL     1      50.072  30.986 183.999  0.00  0.00    +0.000 OA
ATOM      2  C   UNL     1      50.146  32.197 183.620  0.00  0.00    +0.000 C 
ENDROOT
BRANCH   2   3
ATOM      3  C   UNL     1      49.545  33.299 184.476  0.00  0.00    +0.000 C 
BRANCH   3   4
ATOM      4  C   UNL     1      50.074  34.647 184.014  0.00  0.00    +0.000 C 
BRANCH   4   5
ATOM      5  C   UNL     1      48.927  35.642 183.938  0.00  0.00    +0.000 C 
BRANCH   5   6
ATOM      6  C   UNL     1      47.606  34.891 183.909  0.00  0.00    +0.000 C 
BRANCH   6   7
ATOM      7  C   UNL     1      46.468  35.874 183.683  0.00  0.00    +0.000 A 
ATOM      8  C   UNL     1      45.213  35.450 184.058  0.00  0.00    +0.000 A 
ATOM      9  C   UNL     1      44.117  36.319 184.021  0.00  0.00    +0.000 A 
ATOM     10  C   UNL     1      44.351  37.645 183.602  0.00  0.00    +0.000 A 
ATOM     11  C   UNL     1      45.602  38.047 183.201  0.00  0.00    +0.000 A 
ATOM     12  C   UNL     1      46.662  37.163 183.251  0.00  0.00    +0.000 A 
BRANCH  10  13
ATOM     13  O   UNL     1      43.357  38.562 183.555  0.00  0.00    +0.000 OA
ATOM     14  H   UNL     1      42.609  38.522 184.218  0.00  0.00    +0.000 HD
ENDBRANCH  10  13
ENDBRANCH   6   7
ENDBRANCH   5   6
ENDBRANCH   4   5
ENDBRANCH   3   4
ENDBRANCH   2   3
BRANCH   2  15
ATOM     15  C   UNL     1      50.837  32.544 182.312  0.00  0.00    +0.000 C 
BRANCH  15  16
ATOM     16  C   UNL     1      49.979  32.076 181.147  0.00  0.00    +0.000 C 
BRANCH  16  17
ATOM     17  C   UNL     1      48.983  33.165 180.782  0.00  0.00    +0.000 A 
ATOM     18  C   UNL     1      49.435  34.407 180.397  0.00  0.00    +0.000 A 
ATOM     19  C   UNL     1      48.539  35.424 180.047  0.00  0.00    +0.000 A 
ATOM     20  C   UNL     1      47.163  35.122 180.084  0.00  0.00    +0.000 A 
ATOM     21  C   UNL     1      46.723  33.887 180.498  0.00  0.00    +0.000 A 
ATOM     22  C   UNL     1      47.635  32.907 180.838  0.00  0.00    +0.000 A 
BRANCH  20  23
ATOM     23  O   UNL     1      46.226  36.034 179.738  0.00  0.00    +0.000 OA
ATOM     24  H   UNL     1      45.286  35.743 179.562  0.00  0.00    +0.000 HD
ENDBRANCH  20  23
ENDBRANCH  16  17
ENDBRANCH  15  16
ENDBRANCH   2  15
TORSDOF 10
ENDMDL
MODEL 9
REMARK VINA RESULT:    -6.014      2.671      5.163
REMARK INTER + INTRA:         -12.093
REMARK INTER:                  -9.178
REMARK INTRA:                  -2.914
REMARK UNBOUND:                -2.914
REMARK  Name = 
REMARK  10 active torsions:
REMARK  status: ('A' for Active; 'I' for Inactive)
REMARK    1  A    between atoms: C_2  and  C_3
REMARK    2  A    between atoms: C_2  and  C_14
REMARK    3  A    between atoms: C_3  and  C_4
REMARK    4  A    between atoms: C_4  and  C_5
REMARK    5  A    between atoms: C_5  and  C_6
REMARK    6  A    between atoms: C_6  and  C_7
REMARK    7  A    between atoms: C_10  and  O_11
REMARK    8  A    between atoms: C_14  and  C_15
REMARK    9  A    between atoms: C_15  and  C_16
REMARK   10  A    between atoms: C_19  and  O_20
REMARK                            x       y       z     vdW  Elec       q    Type
REMARK                         _______ _______ _______ _____ _____    ______ ____
ROOT
ATOM      1  O   UNL     1      47.021  37.857 185.415  0.00  0.00    +0.000 OA
ATOM      2  C   UNL     1      46.689  37.299 184.322  0.00  0.00    +0.000 C 
ENDROOT
BRANCH   2   3
ATOM      3  C   UNL     1      45.647  37.945 183.425  0.00  0.00    +0.000 C 
BRANCH   3   4
ATOM      4  C   UNL     1      46.336  38.612 182.246  0.00  0.00    +0.000 C 
BRANCH   4   5
ATOM      5  C   UNL     1      46.008  37.852 180.971  0.00  0.00    +0.000 C 
BRANCH   5   6
ATOM      6  C   UNL     1      47.259  37.733 180.116  0.00  0.00    +0.000 C 
BRANCH   6   7
ATOM      7  C   UNL     1      47.711  36.282 180.077  0.00  0.00    +0.000 A 
ATOM      8  C   UNL     1      46.808  35.349 180.535  0.00  0.00    +0.000 A 
ATOM      9  C   UNL     1      47.066  33.979 180.420  0.00  0.00    +0.000 A 
ATOM     10  C   UNL     1      48.273  33.592 179.804  0.00  0.00    +0.000 A 
ATOM     11  C   UNL     1      49.180  34.533 179.378  0.00  0.00    +0.000 A 
ATOM     12  C   UNL     1      48.894  35.878 179.507  0.00  0.00    +0.000 A 
BRANCH  10  13
ATOM     13  O   UNL     1      48.597  32.290 179.628  0.00  0.00    +0.000 OA
ATOM     14  H   UNL     1      47.946  31.575 179.884  0.00  0.00    +0.000 HD
ENDBRANCH  10  13
ENDBRANCH   6   7
ENDBRANCH   5   6
ENDBRANCH   4   5
ENDBRANCH   3   4
ENDBRANCH   2   3
BRANCH   2  15
ATOM     15  C   UNL     1      47.335  35.986 183.913  0.00  0.00    +0.000 C 
BRANCH  15  16
ATOM     16  C   UNL     1      48.846  36.151 183.881  0.00  0.00    +0.000 C 
BRANCH  16  17
ATOM     17  C   UNL     1      49.487  34.861 183.399  0.00  0.00    +0.000 A 
ATOM     18  C   UNL     1      48.868  33.655 183.641  0.00  0.00    +0.000 A 
ATOM     19  C   UNL     1      49.432  32.452 183.200  0.00  0.00    +0.000 A 
ATOM     20  C   UNL     1      50.644  32.525 182.483  0.00  0.00    +0.000 A 
ATOM     21  C   UNL     1      51.267  33.732 182.273  0.00  0.00    +0.000 A 
ATOM     22  C   UNL     1      50.683  34.899 182.723  0.00  0.00    +0.000 A 
BRANCH  20  23
ATOM     23  O   UNL     1      51.249  31.417 181.997  0.00  0.00    +0.000 OA
ATOM     24  H   UNL     1      52.244  31.390 181.906  0.00  0.00    +0.000 HD
ENDBRANCH  20  23
ENDBRANCH  16  17
ENDBRANCH  15  16
ENDBRANCH   2  15
TORSDOF 10
ENDMDL
