MODEL 1
REMARK VINA RESULT:    -6.883      0.000      0.000
REMARK INTER + INTRA:         -12.594
REMARK INTER:                  -9.917
REMARK INTRA:                  -2.677
REMARK UNBOUND:                -2.291
REMARK  Name = 
REMARK  10 active torsions:
REMARK  status: ('A' for Active; 'I' for Inactive)
REMARK    1  A    between atoms: C_1  and  O_2
REMARK    2  A    between atoms: O_2  and  C_3
REMARK    3  A    between atoms: C_5  and  C_6
REMARK    4  A    between atoms: C_7  and  C_8
REMARK    5  A    between atoms: C_8  and  C_10
REMARK    6  A    between atoms: C_10  and  C_11
REMARK    7  A    between atoms: C_11  and  C_12
REMARK    8  A    between atoms: C_12  and  C_13
REMARK    9  A    between atoms: C_13  and  C_14
REMARK   10  A    between atoms: C_22  and  O_23
REMARK                            x       y       z     vdW  Elec       q    Type
REMARK                         _______ _______ _______ _____ _____    ______ ____
ROOT
ATOM      1  C   UNL     1      45.903  35.162 183.762  0.00  0.00    +0.000 C 
ATOM      2  C   UNL     1      44.631  34.797 183.448  0.00  0.00    +0.000 C 
ENDROOT
BRANCH   1   5
ATOM      3  C   UNL     1      49.207  34.589 182.019  0.00  0.00    +0.000 A 
ATOM      4  C   UNL     1      48.219  34.592 182.976  0.00  0.00    +0.000 A 
ATOM      5  C   UNL     1      46.985  35.143 182.694  0.00  0.00    +0.000 A 
ATOM      6  C   UNL     1      46.730  35.674 181.453  0.00  0.00    +0.000 A 
ATOM      7  C   UNL     1      47.702  35.651 180.477  0.00  0.00    +0.000 A 
ATOM      8  C   UNL     1      48.963  35.100 180.727  0.00  0.00    +0.000 A 
BRANCH   3  10
ATOM      9  C   UNL     1      51.317  34.860 183.095  0.00  0.00    +0.000 C 
ATOM     10  O   UNL     1      50.403  34.059 182.359  0.00  0.00    +0.000 OA
ENDBRANCH   3  10
BRANCH   8  11
ATOM     11  O   UNL     1      49.961  35.058 179.719  0.00  0.00    +0.000 OA
ATOM     12  H   UNL     1      49.800  35.502 178.837  0.00  0.00    +0.000 HD
ENDBRANCH   8  11
ENDBRANCH   1   5
BRANCH   2  13
ATOM     13  C   UNL     1      43.549  34.816 184.516  0.00  0.00    +0.000 C 
ATOM     14  O   UNL     1      42.379  35.223 184.230  0.00  0.00    +0.000 OA
BRANCH  13  15
ATOM     15  C   UNL     1      43.867  34.349 185.927  0.00  0.00    +0.000 C 
BRANCH  15  16
ATOM     16  C   UNL     1      43.463  35.427 186.920  0.00  0.00    +0.000 C 
BRANCH  16  17
ATOM     17  C   UNL     1      44.483  36.554 186.887  0.00  0.00    +0.000 C 
BRANCH  17  18
ATOM     18  C   UNL     1      43.812  37.829 186.403  0.00  0.00    +0.000 C 
BRANCH  18  19
ATOM     19  C   UNL     1      44.510  38.322 185.145  0.00  0.00    +0.000 A 
ATOM     20  C   UNL     1      43.804  38.502 183.968  0.00  0.00    +0.000 A 
ATOM     21  C   UNL     1      44.625  38.646 182.823  0.00  0.00    +0.000 A 
ATOM     22  C   UNL     1      45.909  38.948 182.856  0.00  0.00    +0.000 A 
ATOM     23  C   UNL     1      46.535  38.815 184.066  0.00  0.00    +0.000 A 
ATOM     24  C   UNL     1      45.818  38.547 185.206  0.00  0.00    +0.000 A 
ENDBRANCH  18  19
ENDBRANCH  17  18
ENDBRANCH  16  17
ENDBRANCH  15  16
ENDBRANCH  13  15
ENDBRANCH   2  13
TORSDOF 9
ENDMDL
MODEL 2
REMARK VINA RESULT:    -6.783      1.929      6.635
REMARK INTER + INTRA:         -12.444
REMARK INTER:                  -9.778
REMARK INTRA:                  -2.666
REMARK UNBOUND:                -2.291
REMARK  Name = 
REMARK  10 active torsions:
REMARK  status: ('A' for Active; 'I' for Inactive)
REMARK    1  A    between atoms: C_1  and  O_2
REMARK    2  A    between atoms: O_2  and  C_3
REMARK    3  A    between atoms: C_5  and  C_6
REMARK    4  A    between atoms: C_7  and  C_8
REMARK    5  A    between atoms: C_8  and  C_10
REMARK    6  A    between atoms: C_10  and  C_11
REMARK    7  A    between atoms: C_11  and  C_12
REMARK    8  A    between atoms: C_12  and  C_13
REMARK    9  A    between atoms: C_13  and  C_14
REMARK   10  A    between atoms: C_22  and  O_23
REMARK                            x       y       z     vdW  Elec       q    Type
REMARK                         _______ _______ _______ _____ _____    ______ ____
ROOT
ATOM      1  C   UNL     1      47.788  35.221 183.766  0.00  0.00    +0.000 C 
ATOM      2  C   UNL     1      49.064  35.692 183.820  0.00  0.00    +0.000 C 
ENDROOT
BRANCH   1   5
ATOM      3  C   UNL     1      44.381  36.825 184.082  0.00  0.00    +0.000 A 
ATOM      4  C   UNL     1      45.439  35.964 184.255  0.00  0.00    +0.000 A 
ATOM      5  C   UNL     1      46.628  36.187 183.588  0.00  0.00    +0.000 A 
ATOM      6  C   UNL     1      46.767  37.278 182.765  0.00  0.00    +0.000 A 
ATOM      7  C   UNL     1      45.723  38.164 182.607  0.00  0.00    +0.000 A 
ATOM      8  C   UNL     1      44.506  37.969 183.267  0.00  0.00    +0.000 A 
BRANCH   3  10
ATOM      9  C   UNL     1      42.350  35.581 184.183  0.00  0.00    +0.000 C 
ATOM     10  O   UNL     1      43.234  36.543 184.740  0.00  0.00    +0.000 OA
ENDBRANCH   3  10
BRANCH   8  11
ATOM     11  O   UNL     1      43.434  38.889 183.121  0.00  0.00    +0.000 OA
ATOM     12  H   UNL     1      42.935  39.206 183.927  0.00  0.00    +0.000 HD
ENDBRANCH   8  11
ENDBRANCH   1   5
BRANCH   2  13
ATOM     13  C   UNL     1      50.223  34.726 183.998  0.00  0.00    +0.000 C 
ATOM     14  O   UNL     1      51.355  34.988 183.480  0.00  0.00    +0.000 OA
BRANCH  13  15
ATOM     15  C   UNL     1      50.031  33.446 184.794  0.00  0.00    +0.000 C 
BRANCH  15  16
ATOM     16  C   UNL     1      50.540  32.264 183.985  0.00  0.00    +0.000 C 
BRANCH  16  17
ATOM     17  C   UNL     1      49.515  31.898 182.923  0.00  0.00    +0.000 C 
BRANCH  17  18
ATOM     18  C   UNL     1      50.077  32.219 181.547  0.00  0.00    +0.000 C 
BRANCH  18  19
ATOM     19  C   UNL     1      49.193  33.252 180.867  0.00  0.00    +0.000 A 
ATOM     20  C   UNL     1      49.734  34.418 180.351  0.00  0.00    +0.000 A 
ATOM     21  C   UNL     1      48.772  35.412 180.049  0.00  0.00    +0.000 A 
ATOM     22  C   UNL     1      47.480  35.184 179.907  0.00  0.00    +0.000 A 
ATOM     23  C   UNL     1      47.018  33.984 180.375  0.00  0.00    +0.000 A 
ATOM     24  C   UNL     1      47.887  33.014 180.809  0.00  0.00    +0.000 A 
ENDBRANCH  18  19
ENDBRANCH  17  18
ENDBRANCH  16  17
ENDBRANCH  15  16
ENDBRANCH  13  15
ENDBRANCH   2  13
TORSDOF 9
ENDMDL
MODEL 3
REMARK VINA RESULT:    -6.731      3.434      5.962
REMARK INTER + INTRA:         -12.366
REMARK INTER:                  -9.626
REMARK INTRA:                  -2.740
REMARK UNBOUND:                -2.291
REMARK  Name = 
REMARK  10 active torsions:
REMARK  status: ('A' for Active; 'I' for Inactive)
REMARK    1  A    between atoms: C_1  and  O_2
REMARK    2  A    between atoms: O_2  and  C_3
REMARK    3  A    between atoms: C_5  and  C_6
REMARK    4  A    between atoms: C_7  and  C_8
REMARK    5  A    between atoms: C_8  and  C_10
REMARK    6  A    between atoms: C_10  and  C_11
REMARK    7  A    between atoms: C_11  and  C_12
REMARK    8  A    between atoms: C_12  and  C_13
REMARK    9  A    between atoms: C_13  and  C_14
REMARK   10  A    between atoms: C_22  and  O_23
REMARK                            x       y       z     vdW  Elec       q    Type
REMARK                         _______ _______ _______ _____ _____    ______ ____
ROOT
ATOM      1  C   UNL     1      49.247  33.796 180.023  0.00  0.00    +0.000 C 
ATOM      2  C   UNL     1      49.372  34.992 179.386  0.00  0.00    +0.000 C 
ENDROOT
BRANCH   1   5
ATOM      3  C   UNL     1      50.197  32.260 183.342  0.00  0.00    +0.000 A 
ATOM      4  C   UNL     1      49.795  32.395 182.034  0.00  0.00    +0.000 A 
ATOM      5  C   UNL     1      49.712  33.650 181.463  0.00  0.00    +0.000 A 
ATOM      6  C   UNL     1      50.048  34.766 182.190  0.00  0.00    +0.000 A 
ATOM      7  C   UNL     1      50.481  34.640 183.492  0.00  0.00    +0.000 A 
ATOM      8  C   UNL     1      50.577  33.386 184.102  0.00  0.00    +0.000 A 
BRANCH   3  10
ATOM      9  C   UNL     1      50.968  30.011 183.162  0.00  0.00    +0.000 C 
ATOM     10  O   UNL     1      50.235  31.010 183.856  0.00  0.00    +0.000 OA
ENDBRANCH   3  10
BRANCH   8  11
ATOM     11  O   UNL     1      51.039  33.250 185.437  0.00  0.00    +0.000 OA
ATOM     12  H   UNL     1      51.906  33.667 185.711  0.00  0.00    +0.000 HD
ENDBRANCH   8  11
ENDBRANCH   1   5
BRANCH   2  13
ATOM     13  C   UNL     1      48.907  35.138 177.947  0.00  0.00    +0.000 C 
ATOM     14  O   UNL     1      49.054  34.175 177.130  0.00  0.00    +0.000 OA
BRANCH  13  15
ATOM     15  C   UNL     1      48.266  36.437 177.482  0.00  0.00    +0.000 C 
BRANCH  15  16
ATOM     16  C   UNL     1      48.245  37.430 178.632  0.00  0.00    +0.000 C 
BRANCH  16  17
ATOM     17  C   UNL     1      46.830  37.547 179.176  0.00  0.00    +0.000 C 
BRANCH  17  18
ATOM     18  C   UNL     1      46.882  37.759 180.680  0.00  0.00    +0.000 C 
BRANCH  18  19
ATOM     19  C   UNL     1      46.505  36.468 181.388  0.00  0.00    +0.000 A 
ATOM     20  C   UNL     1      46.660  36.340 182.758  0.00  0.00    +0.000 A 
ATOM     21  C   UNL     1      46.582  35.005 183.222  0.00  0.00    +0.000 A 
ATOM     22  C   UNL     1      46.062  34.003 182.537  0.00  0.00    +0.000 A 
ATOM     23  C   UNL     1      45.869  34.217 181.199  0.00  0.00    +0.000 A 
ATOM     24  C   UNL     1      46.051  35.462 180.649  0.00  0.00    +0.000 A 
ENDBRANCH  18  19
ENDBRANCH  17  18
ENDBRANCH  16  17
ENDBRANCH  15  16
ENDBRANCH  13  15
ENDBRANCH   2  13
TORSDOF 9
ENDMDL
MODEL 4
REMARK VINA RESULT:    -6.685      3.147      6.470
REMARK INTER + INTRA:         -12.298
REMARK INTER:                  -9.719
REMARK INTRA:                  -2.579
REMARK UNBOUND:                -2.291
REMARK  Name = 
REMARK  10 active torsions:
REMARK  status: ('A' for Active; 'I' for Inactive)
REMARK    1  A    between atoms: C_1  and  O_2
REMARK    2  A    between atoms: O_2  and  C_3
REMARK    3  A    between atoms: C_5  and  C_6
REMARK    4  A    between atoms: C_7  and  C_8
REMARK    5  A    between atoms: C_8  and  C_10
REMARK    6  A    between atoms: C_10  and  C_11
REMARK    7  A    between atoms: C_11  and  C_12
REMARK    8  A    between atoms: C_12  and  C_13
REMARK    9  A    between atoms: C_13  and  C_14
REMARK   10  A    between atoms: C_22  and  O_23
REMARK                            x       y       z     vdW  Elec       q    Type
REMARK                         _______ _______ _______ _____ _____    ______ ____
ROOT
ATOM      1  C   UNL     1      44.172  39.009 184.175  0.00  0.00    +0.000 C 
ATOM      2  C   UNL     1      44.187  39.146 182.821  0.00  0.00    +0.000 C 
ENDROOT
BRANCH   1   5
ATOM      3  C   UNL     1      43.802  36.240 186.720  0.00  0.00    +0.000 A 
ATOM      4  C   UNL     1      44.053  37.468 186.155  0.00  0.00    +0.000 A 
ATOM      5  C   UNL     1      43.873  37.655 184.798  0.00  0.00    +0.000 A 
ATOM      6  C   UNL     1      43.424  36.624 184.010  0.00  0.00    +0.000 A 
ATOM      7  C   UNL     1      43.141  35.397 184.570  0.00  0.00    +0.000 A 
ATOM      8  C   UNL     1      43.312  35.172 185.939  0.00  0.00    +0.000 A 
BRANCH   3  10
ATOM      9  C   UNL     1      43.088  36.685 188.951  0.00  0.00    +0.000 C 
ATOM     10  O   UNL     1      44.020  36.107 188.048  0.00  0.00    +0.000 OA
ENDBRANCH   3  10
BRANCH   8  11
ATOM     11  O   UNL     1      43.004  33.915 186.523  0.00  0.00    +0.000 OA
ATOM     12  H   UNL     1      43.234  33.070 186.041  0.00  0.00    +0.000 HD
ENDBRANCH   8  11
ENDBRANCH   1   5
BRANCH   2  13
ATOM     13  C   UNL     1      44.486  40.500 182.198  0.00  0.00    +0.000 C 
ATOM     14  O   UNL     1      44.219  41.567 182.836  0.00  0.00    +0.000 OA
BRANCH  13  15
ATOM     15  C   UNL     1      45.104  40.579 180.812  0.00  0.00    +0.000 C 
BRANCH  15  16
ATOM     16  C   UNL     1      45.314  39.174 180.270  0.00  0.00    +0.000 C 
BRANCH  16  17
ATOM     17  C   UNL     1      46.785  38.805 180.376  0.00  0.00    +0.000 C 
BRANCH  17  18
ATOM     18  C   UNL     1      46.943  37.303 180.202  0.00  0.00    +0.000 C 
BRANCH  18  19
ATOM     19  C   UNL     1      46.808  36.619 181.553  0.00  0.00    +0.000 A 
ATOM     20  C   UNL     1      47.200  37.262 182.715  0.00  0.00    +0.000 A 
ATOM     21  C   UNL     1      47.320  36.403 183.833  0.00  0.00    +0.000 A 
ATOM     22  C   UNL     1      46.786  35.198 183.913  0.00  0.00    +0.000 A 
ATOM     23  C   UNL     1      46.355  34.645 182.738  0.00  0.00    +0.000 A 
ATOM     24  C   UNL     1      46.330  35.380 181.578  0.00  0.00    +0.000 A 
ENDBRANCH  18  19
ENDBRANCH  17  18
ENDBRANCH  16  17
ENDBRANCH  15  16
ENDBRANCH  13  15
ENDBRANCH   2  13
TORSDOF 9
ENDMDL
MODEL 5
REMARK VINA RESULT:    -6.673      2.810      6.526
REMARK INTER + INTRA:         -12.280
REMARK INTER:                  -9.901
REMARK INTRA:                  -2.379
REMARK UNBOUND:                -2.291
REMARK  Name = 
REMARK  10 active torsions:
REMARK  status: ('A' for Active; 'I' for Inactive)
REMARK    1  A    between atoms: C_1  and  O_2
REMARK    2  A    between atoms: O_2  and  C_3
REMARK    3  A    between atoms: C_5  and  C_6
REMARK    4  A    between atoms: C_7  and  C_8
REMARK    5  A    between atoms: C_8  and  C_10
REMARK    6  A    between atoms: C_10  and  C_11
REMARK    7  A    between atoms: C_11  and  C_12
REMARK    8  A    between atoms: C_12  and  C_13
REMARK    9  A    between atoms: C_13  and  C_14
REMARK   10  A    between atoms: C_22  and  O_23
REMARK                            x       y       z     vdW  Elec       q    Type
REMARK                         _______ _______ _______ _____ _____    ______ ____
ROOT
ATOM      1  C   UNL     1      45.507  37.775 183.847  0.00  0.00    +0.000 C 
ATOM      2  C   UNL     1      44.861  38.414 182.834  0.00  0.00    +0.000 C 
ENDROOT
BRANCH   1   5
ATOM      3  C   UNL     1      44.029  35.548 186.518  0.00  0.00    +0.000 A 
ATOM      4  C   UNL     1      44.602  36.629 185.890  0.00  0.00    +0.000 A 
ATOM      5  C   UNL     1      44.855  36.586 184.533  0.00  0.00    +0.000 A 
ATOM      6  C   UNL     1      44.519  35.474 183.801  0.00  0.00    +0.000 A 
ATOM      7  C   UNL     1      43.918  34.396 184.413  0.00  0.00    +0.000 A 
ATOM      8  C   UNL     1      43.647  34.405 185.785  0.00  0.00    +0.000 A 
BRANCH   3  10
ATOM      9  C   UNL     1      43.028  36.700 188.350  0.00  0.00    +0.000 C 
ATOM     10  O   UNL     1      43.828  35.636 187.852  0.00  0.00    +0.000 OA
ENDBRANCH   3  10
BRANCH   8  11
ATOM     11  O   UNL     1      43.012  33.304 186.417  0.00  0.00    +0.000 OA
ATOM     12  H   UNL     1      42.132  32.972 186.077  0.00  0.00    +0.000 HD
ENDBRANCH   8  11
ENDBRANCH   1   5
BRANCH   2  13
ATOM     13  C   UNL     1      45.514  39.604 182.149  0.00  0.00    +0.000 C 
ATOM     14  O   UNL     1      45.250  40.785 182.537  0.00  0.00    +0.000 OA
BRANCH  13  15
ATOM     15  C   UNL     1      46.481  39.381 180.997  0.00  0.00    +0.000 C 
BRANCH  15  16
ATOM     16  C   UNL     1      45.717  38.884 179.782  0.00  0.00    +0.000 C 
BRANCH  16  17
ATOM     17  C   UNL     1      46.101  37.441 179.496  0.00  0.00    +0.000 C 
BRANCH  17  18
ATOM     18  C   UNL     1      47.383  37.103 180.240  0.00  0.00    +0.000 C 
BRANCH  18  19
ATOM     19  C   UNL     1      47.211  35.782 180.973  0.00  0.00    +0.000 A 
ATOM     20  C   UNL     1      48.049  35.440 182.021  0.00  0.00    +0.000 A 
ATOM     21  C   UNL     1      47.984  34.073 182.384  0.00  0.00    +0.000 A 
ATOM     22  C   UNL     1      47.002  33.256 182.052  0.00  0.00    +0.000 A 
ATOM     23  C   UNL     1      46.166  33.683 181.056  0.00  0.00    +0.000 A 
ATOM     24  C   UNL     1      46.254  34.960 180.559  0.00  0.00    +0.000 A 
ENDBRANCH  18  19
ENDBRANCH  17  18
ENDBRANCH  16  17
ENDBRANCH  15  16
ENDBRANCH  13  15
ENDBRANCH   2  13
TORSDOF 9
ENDMDL
MODEL 6
REMARK VINA RESULT:    -6.547      1.044      2.124
REMARK INTER + INTRA:         -12.091
REMARK INTER:                  -9.559
REMARK INTRA:                  -2.532
REMARK UNBOUND:                -2.291
REMARK  Name = 
REMARK  10 active torsions:
REMARK  status: ('A' for Active; 'I' for Inactive)
REMARK    1  A    between atoms: C_1  and  O_2
REMARK    2  A    between atoms: O_2  and  C_3
REMARK    3  A    between atoms: C_5  and  C_6
REMARK    4  A    between atoms: C_7  and  C_8
REMARK    5  A    between atoms: C_8  and  C_10
REMARK    6  A    between atoms: C_10  and  C_11
REMARK    7  A    between atoms: C_11  and  C_12
REMARK    8  A    between atoms: C_12  and  C_13
REMARK    9  A    between atoms: C_13  and  C_14
REMARK   10  A    between atoms: C_22  and  O_23
REMARK                            x       y       z     vdW  Elec       q    Type
REMARK                         _______ _______ _______ _____ _____    ______ ____
ROOT
ATOM      1  C   UNL     1      45.614  34.768 182.910  0.00  0.00    +0.000 C 
ATOM      2  C   UNL     1      45.391  34.843 184.251  0.00  0.00    +0.000 C 
ENDROOT
BRANCH   1   5
ATOM      3  C   UNL     1      48.538  34.220 180.581  0.00  0.00    +0.000 A 
ATOM      4  C   UNL     1      47.254  34.331 181.059  0.00  0.00    +0.000 A 
ATOM      5  C   UNL     1      47.035  34.667 182.381  0.00  0.00    +0.000 A 
ATOM      6  C   UNL     1      48.096  34.909 183.219  0.00  0.00    +0.000 A 
ATOM      7  C   UNL     1      49.386  34.829 182.744  0.00  0.00    +0.000 A 
ATOM      8  C   UNL     1      49.645  34.492 181.411  0.00  0.00    +0.000 A 
BRANCH   3  10
ATOM      9  C   UNL     1      48.405  34.823 178.278  0.00  0.00    +0.000 C 
ATOM     10  O   UNL     1      48.692  33.863 179.285  0.00  0.00    +0.000 OA
ENDBRANCH   3  10
BRANCH   8  11
ATOM     11  O   UNL     1      50.972  34.426 180.913  0.00  0.00    +0.000 OA
ATOM     12  H   UNL     1      51.238  34.980 180.124  0.00  0.00    +0.000 HD
ENDBRANCH   8  11
ENDBRANCH   1   5
BRANCH   2  13
ATOM     13  C   UNL     1      43.969  34.944 184.780  0.00  0.00    +0.000 C 
ATOM     14  O   UNL     1      42.993  35.020 183.969  0.00  0.00    +0.000 OA
BRANCH  13  15
ATOM     15  C   UNL     1      43.715  34.956 186.279  0.00  0.00    +0.000 C 
BRANCH  15  16
ATOM     16  C   UNL     1      44.174  36.283 186.860  0.00  0.00    +0.000 C 
BRANCH  16  17
ATOM     17  C   UNL     1      43.340  37.410 186.271  0.00  0.00    +0.000 C 
BRANCH  17  18
ATOM     18  C   UNL     1      44.212  38.641 186.086  0.00  0.00    +0.000 C 
BRANCH  18  19
ATOM     19  C   UNL     1      45.125  38.439 184.887  0.00  0.00    +0.000 A 
ATOM     20  C   UNL     1      46.494  38.313 185.053  0.00  0.00    +0.000 A 
ATOM     21  C   UNL     1      47.233  38.458 183.855  0.00  0.00    +0.000 A 
ATOM     22  C   UNL     1      46.720  38.360 182.642  0.00  0.00    +0.000 A 
ATOM     23  C   UNL     1      45.356  38.424 182.552  0.00  0.00    +0.000 A 
ATOM     24  C   UNL     1      44.573  38.418 183.679  0.00  0.00    +0.000 A 
ENDBRANCH  18  19
ENDBRANCH  17  18
ENDBRANCH  16  17
ENDBRANCH  15  16
ENDBRANCH  13  15
ENDBRANCH   2  13
TORSDOF 9
ENDMDL
MODEL 7
REMARK VINA RESULT:    -6.525      2.148      6.543
REMARK INTER + INTRA:         -12.058
REMARK INTER:                  -9.428
REMARK INTRA:                  -2.630
REMARK UNBOUND:                -2.291
REMARK  Name = 
REMARK  10 active torsions:
REMARK  status: ('A' for Active; 'I' for Inactive)
REMARK    1  A    between atoms: C_1  and  O_2
REMARK    2  A    between atoms: O_2  and  C_3
REMARK    3  A    between atoms: C_5  and  C_6
REMARK    4  A    between atoms: C_7  and  C_8
REMARK    5  A    between atoms: C_8  and  C_10
REMARK    6  A    between atoms: C_10  and  C_11
REMARK    7  A    between atoms: C_11  and  C_12
REMARK    8  A    between atoms: C_12  and  C_13
REMARK    9  A    between atoms: C_13  and  C_14
REMARK   10  A    between atoms: C_22  and  O_23
REMARK                            x       y       z     vdW  Elec       q    Type
REMARK                         _______ _______ _______ _____ _____    ______ ____
ROOT
ATOM      1  C   UNL     1      47.663  35.074 183.873  0.00  0.00    +0.000 C 
ATOM      2  C   UNL     1      48.908  35.623 183.907  0.00  0.00    +0.000 C 
ENDROOT
BRANCH   1   5
ATOM      3  C   UNL     1      45.426  38.015 183.082  0.00  0.00    +0.000 A 
ATOM      4  C   UNL     1      46.525  37.192 183.145  0.00  0.00    +0.000 A 
ATOM      5  C   UNL     1      46.440  35.972 183.788  0.00  0.00    +0.000 A 
ATOM      6  C   UNL     1      45.254  35.567 184.350  0.00  0.00    +0.000 A 
ATOM      7  C   UNL     1      44.138  36.371 184.268  0.00  0.00    +0.000 A 
ATOM      8  C   UNL     1      44.189  37.611 183.624  0.00  0.00    +0.000 A 
BRANCH   3  10
ATOM      9  C   UNL     1      45.433  39.263 181.050  0.00  0.00    +0.000 C 
ATOM     10  O   UNL     1      45.575  39.208 182.462  0.00  0.00    +0.000 OA
ENDBRANCH   3  10
BRANCH   8  11
ATOM     11  O   UNL     1      43.037  38.435 183.521  0.00  0.00    +0.000 OA
ATOM     12  H   UNL     1      42.371  38.458 184.267  0.00  0.00    +0.000 HD
ENDBRANCH   8  11
ENDBRANCH   1   5
BRANCH   2  13
ATOM     13  C   UNL     1      50.132  34.726 183.992  0.00  0.00    +0.000 C 
ATOM     14  O   UNL     1      51.229  35.094 183.467  0.00  0.00    +0.000 OA
BRANCH  13  15
ATOM     15  C   UNL     1      50.044  33.386 184.706  0.00  0.00    +0.000 C 
BRANCH  15  16
ATOM     16  C   UNL     1      50.628  32.300 183.817  0.00  0.00    +0.000 C 
BRANCH  16  17
ATOM     17  C   UNL     1      49.593  31.878 182.786  0.00  0.00    +0.000 C 
BRANCH  17  18
ATOM     18  C   UNL     1      50.060  32.294 181.401  0.00  0.00    +0.000 C 
BRANCH  18  19
ATOM     19  C   UNL     1      49.094  33.317 180.825  0.00  0.00    +0.000 A 
ATOM     20  C   UNL     1      49.552  34.536 180.353  0.00  0.00    +0.000 A 
ATOM     21  C   UNL     1      48.530  35.495 180.157  0.00  0.00    +0.000 A 
ATOM     22  C   UNL     1      47.244  35.211 180.064  0.00  0.00    +0.000 A 
ATOM     23  C   UNL     1      46.865  33.965 180.483  0.00  0.00    +0.000 A 
ATOM     24  C   UNL     1      47.800  33.017 180.817  0.00  0.00    +0.000 A 
ENDBRANCH  18  19
ENDBRANCH  17  18
ENDBRANCH  16  17
ENDBRANCH  15  16
ENDBRANCH  13  15
ENDBRANCH   2  13
TORSDOF 9
ENDMDL
MODEL 8
REMARK VINA RESULT:    -6.494      1.591      2.366
REMARK INTER + INTRA:         -12.012
REMARK INTER:                  -9.664
REMARK INTRA:                  -2.349
REMARK UNBOUND:                -2.291
REMARK  Name = 
REMARK  10 active torsions:
REMARK  status: ('A' for Active; 'I' for Inactive)
REMARK    1  A    between atoms: C_1  and  O_2
REMARK    2  A    between atoms: O_2  and  C_3
REMARK    3  A    between atoms: C_5  and  C_6
REMARK    4  A    between atoms: C_7  and  C_8
REMARK    5  A    between atoms: C_8  and  C_10
REMARK    6  A    between atoms: C_10  and  C_11
REMARK    7  A    between atoms: C_11  and  C_12
REMARK    8  A    between atoms: C_12  and  C_13
REMARK    9  A    between atoms: C_13  and  C_14
REMARK   10  A    between atoms: C_22  and  O_23
REMARK                            x       y       z     vdW  Elec       q    Type
REMARK                         _______ _______ _______ _____ _____    ______ ____
ROOT
ATOM      1  C   UNL     1      45.358  34.806 182.747  0.00  0.00    +0.000 C 
ATOM      2  C   UNL     1      45.127  35.185 184.033  0.00  0.00    +0.000 C 
ENDROOT
BRANCH   1   5
ATOM      3  C   UNL     1      49.009  33.837 182.822  0.00  0.00    +0.000 A 
ATOM      4  C   UNL     1      47.796  34.380 183.172  0.00  0.00    +0.000 A 
ATOM      5  C   UNL     1      46.692  34.186 182.365  0.00  0.00    +0.000 A 
ATOM      6  C   UNL     1      46.795  33.436 181.220  0.00  0.00    +0.000 A 
ATOM      7  C   UNL     1      47.999  32.862 180.873  0.00  0.00    +0.000 A 
ATOM      8  C   UNL     1      49.136  33.038 181.667  0.00  0.00    +0.000 A 
BRANCH   3  10
ATOM      9  C   UNL     1      50.146  33.375 184.866  0.00  0.00    +0.000 C 
ATOM     10  O   UNL     1      50.060  34.081 183.637  0.00  0.00    +0.000 OA
ENDBRANCH   3  10
BRANCH   8  11
ATOM     11  O   UNL     1      50.374  32.433 181.323  0.00  0.00    +0.000 OA
ATOM     12  H   UNL     1      51.231  32.921 181.489  0.00  0.00    +0.000 HD
ENDBRANCH   8  11
ENDBRANCH   1   5
BRANCH   2  13
ATOM     13  C   UNL     1      43.792  35.805 184.414  0.00  0.00    +0.000 C 
ATOM     14  O   UNL     1      42.714  35.156 184.233  0.00  0.00    +0.000 OA
BRANCH  13  15
ATOM     15  C   UNL     1      43.746  37.202 185.012  0.00  0.00    +0.000 C 
BRANCH  15  16
ATOM     16  C   UNL     1      45.032  37.468 185.778  0.00  0.00    +0.000 C 
BRANCH  16  17
ATOM     17  C   UNL     1      45.632  38.787 185.319  0.00  0.00    +0.000 C 
BRANCH  17  18
ATOM     18  C   UNL     1      46.882  38.516 184.498  0.00  0.00    +0.000 C 
BRANCH  18  19
ATOM     19  C   UNL     1      46.542  38.588 183.018  0.00  0.00    +0.000 A 
ATOM     20  C   UNL     1      45.528  39.414 182.564  0.00  0.00    +0.000 A 
ATOM     21  C   UNL     1      45.114  39.138 181.238  0.00  0.00    +0.000 A 
ATOM     22  C   UNL     1      45.817  38.441 180.365  0.00  0.00    +0.000 A 
ATOM     23  C   UNL     1      46.850  37.699 180.868  0.00  0.00    +0.000 A 
ATOM     24  C   UNL     1      47.229  37.816 182.183  0.00  0.00    +0.000 A 
ENDBRANCH  18  19
ENDBRANCH  17  18
ENDBRANCH  16  17
ENDBRANCH  15  16
ENDBRANCH  13  15
ENDBRANCH   2  13
TORSDOF 9
ENDMDL
MODEL 9
REMARK VINA RESULT:    -6.473      2.138      4.631
REMARK INTER + INTRA:         -11.980
REMARK INTER:                  -9.689
REMARK INTRA:                  -2.291
REMARK UNBOUND:                -2.291
REMARK  Name = 
REMARK  10 active torsions:
REMARK  status: ('A' for Active; 'I' for Inactive)
REMARK    1  A    between atoms: C_1  and  O_2
REMARK    2  A    between atoms: O_2  and  C_3
REMARK    3  A    between atoms: C_5  and  C_6
REMARK    4  A    between atoms: C_7  and  C_8
REMARK    5  A    between atoms: C_8  and  C_10
REMARK    6  A    between atoms: C_10  and  C_11
REMARK    7  A    between atoms: C_11  and  C_12
REMARK    8  A    between atoms: C_12  and  C_13
REMARK    9  A    between atoms: C_13  and  C_14
REMARK   10  A    between atoms: C_22  and  O_23
REMARK                            x       y       z     vdW  Elec       q    Type
REMARK                         _______ _______ _______ _____ _____    ______ ____
ROOT
ATOM      1  C   UNL     1      46.089  37.308 180.839  0.00  0.00    +0.000 C 
ATOM      2  C   UNL     1      46.803  38.366 180.366  0.00  0.00    +0.000 C 
ENDROOT
BRANCH   1   5
ATOM      3  C   UNL     1      48.537  34.953 182.492  0.00  0.00    +0.000 A 
ATOM      4  C   UNL     1      47.972  35.831 181.598  0.00  0.00    +0.000 A 
ATOM      5  C   UNL     1      46.717  36.354 181.841  0.00  0.00    +0.000 A 
ATOM      6  C   UNL     1      46.036  36.016 182.984  0.00  0.00    +0.000 A 
ATOM      7  C   UNL     1      46.604  35.160 183.902  0.00  0.00    +0.000 A 
ATOM      8  C   UNL     1      47.872  34.612 183.689  0.00  0.00    +0.000 A 
BRANCH   3  10
ATOM      9  C   UNL     1      49.837  33.351 181.296  0.00  0.00    +0.000 C 
ATOM     10  O   UNL     1      49.757  34.452 182.190  0.00  0.00    +0.000 OA
ENDBRANCH   3  10
BRANCH   8  11
ATOM     11  O   UNL     1      48.469  33.744 184.640  0.00  0.00    +0.000 OA
ATOM     12  H   UNL     1      47.894  33.154 185.208  0.00  0.00    +0.000 HD
ENDBRANCH   8  11
ENDBRANCH   1   5
BRANCH   2  13
ATOM     13  C   UNL     1      46.175  39.320 179.364  0.00  0.00    +0.000 C 
ATOM     14  O   UNL     1      46.728  39.513 178.236  0.00  0.00    +0.000 OA
BRANCH  13  15
ATOM     15  C   UNL     1      44.884  40.044 179.710  0.00  0.00    +0.000 C 
BRANCH  15  16
ATOM     16  C   UNL     1      45.120  40.958 180.902  0.00  0.00    +0.000 C 
BRANCH  16  17
ATOM     17  C   UNL     1      44.248  40.510 182.065  0.00  0.00    +0.000 C 
BRANCH  17  18
ATOM     18  C   UNL     1      45.134  40.079 183.223  0.00  0.00    +0.000 C 
BRANCH  18  19
ATOM     19  C   UNL     1      44.377  39.094 184.100  0.00  0.00    +0.000 A 
ATOM     20  C   UNL     1      44.742  38.899 185.422  0.00  0.00    +0.000 A 
ATOM     21  C   UNL     1      44.175  37.742 186.008  0.00  0.00    +0.000 A 
ATOM     22  C   UNL     1      43.132  37.092 185.525  0.00  0.00    +0.000 A 
ATOM     23  C   UNL     1      42.779  37.381 184.235  0.00  0.00    +0.000 A 
ATOM     24  C   UNL     1      43.379  38.411 183.552  0.00  0.00    +0.000 A 
ENDBRANCH  18  19
ENDBRANCH  17  18
ENDBRANCH  16  17
ENDBRANCH  15  16
ENDBRANCH  13  15
ENDBRANCH   2  13
TORSDOF 9
ENDMDL
