MODEL 1
REMARK VINA RESULT:    -7.251      0.000      0.000
REMARK INTER + INTRA:         -10.931
REMARK INTER:                 -10.148
REMARK INTRA:                  -0.783
REMARK UNBOUND:                -0.713
REMARK  Name = 
REMARK  11 active torsions:
REMARK  status: ('A' for Active; 'I' for Inactive)
REMARK    1  A    between atoms: C_1  and  O_2
REMARK    2  A    between atoms: O_2  and  C_3
REMARK    3  A    between atoms: C_6  and  C_7
REMARK    4  A    between atoms: C_8  and  C_9
REMARK    5  A    between atoms: C_9  and  C_11
REMARK    6  A    between atoms: C_13  and  O_14
REMARK    7  A    between atoms: O_14  and  C_15
REMARK    8  A    between atoms: C_16  and  O_17
REMARK    9  A    between atoms: O_17  and  C_18
REMARK   10  A    between atoms: C_19  and  O_20
REMARK   11  A    between atoms: O_20  and  C_21
REMARK                            x       y       z     vdW  Elec       q    Type
REMARK                         _______ _______ _______ _____ _____    ______ ____
ROOT
ATOM      1  C   UNL     1      46.413  37.017 182.299  0.00  0.00    +0.000 C 
ATOM      2  O   UNL     1      46.056  37.782 181.349  0.00  0.00    +0.000 OA
ENDROOT
BRANCH   1   3
ATOM      3  C   UNL     1      47.484  35.964 182.066  0.00  0.00    +0.000 A 
ATOM      4  C   UNL     1      48.321  35.599 183.107  0.00  0.00    +0.000 A 
ATOM      5  C   UNL     1      49.443  34.838 182.701  0.00  0.00    +0.000 A 
ATOM      6  C   UNL     1      49.543  34.210 181.543  0.00  0.00    +0.000 A 
ATOM      7  C   UNL     1      48.644  34.568 180.577  0.00  0.00    +0.000 A 
ATOM      8  C   UNL     1      47.596  35.409 180.865  0.00  0.00    +0.000 A 
BRANCH   5   9
ATOM      9  O   UNL     1      50.538  34.744 183.600  0.00  0.00    +0.000 OA
ATOM     10  C   UNL     1      50.412  33.990 184.796  0.00  0.00    +0.000 C 
ENDBRANCH   5   9
BRANCH   6  11
ATOM     11  O   UNL     1      50.530  33.216 181.314  0.00  0.00    +0.000 OA
ATOM     12  C   UNL     1      50.274  31.865 181.669  0.00  0.00    +0.000 C 
ENDBRANCH   6  11
BRANCH   7  13
ATOM     13  O   UNL     1      48.795  34.063 179.259  0.00  0.00    +0.000 OA
ATOM     14  C   UNL     1      48.745  34.948 178.149  0.00  0.00    +0.000 C 
ENDBRANCH   7  13
ENDBRANCH   1   3
BRANCH   1  16
ATOM     15  C   UNL     1      44.923  36.190 184.122  0.00  0.00    +0.000 C 
ATOM     16  C   UNL     1      45.768  37.154 183.668  0.00  0.00    +0.000 C 
BRANCH  15  20
ATOM     17  C   UNL     1      43.315  36.667 188.051  0.00  0.00    +0.000 A 
ATOM     18  C   UNL     1      43.290  37.749 187.186  0.00  0.00    +0.000 A 
ATOM     19  C   UNL     1      43.641  37.427 185.854  0.00  0.00    +0.000 A 
ATOM     20  C   UNL     1      44.278  36.327 185.492  0.00  0.00    +0.000 A 
ATOM     21  C   UNL     1      44.326  35.320 186.415  0.00  0.00    +0.000 A 
ATOM     22  C   UNL     1      43.882  35.518 187.700  0.00  0.00    +0.000 A 
BRANCH  17  24
ATOM     23  C   UNL     1      41.422  37.337 189.469  0.00  0.00    +0.000 C 
ATOM     24  O   UNL     1      42.724  36.788 189.336  0.00  0.00    +0.000 OA
ENDBRANCH  17  24
ENDBRANCH  15  20
ENDBRANCH   1  16
TORSDOF 7
ENDMDL
MODEL 2
REMARK VINA RESULT:    -7.248      2.316      8.008
REMARK INTER + INTRA:         -10.927
REMARK INTER:                 -10.251
REMARK INTRA:                  -0.676
REMARK UNBOUND:                -0.713
REMARK  Name = 
REMARK  11 active torsions:
REMARK  status: ('A' for Active; 'I' for Inactive)
REMARK    1  A    between atoms: C_1  and  O_2
REMARK    2  A    between atoms: O_2  and  C_3
REMARK    3  A    between atoms: C_6  and  C_7
REMARK    4  A    between atoms: C_8  and  C_9
REMARK    5  A    between atoms: C_9  and  C_11
REMARK    6  A    between atoms: C_13  and  O_14
REMARK    7  A    between atoms: O_14  and  C_15
REMARK    8  A    between atoms: C_16  and  O_17
REMARK    9  A    between atoms: O_17  and  C_18
REMARK   10  A    between atoms: C_19  and  O_20
REMARK   11  A    between atoms: O_20  and  C_21
REMARK                            x       y       z     vdW  Elec       q    Type
REMARK                         _______ _______ _______ _____ _____    ______ ____
ROOT
ATOM      1  C   UNL     1      47.080  36.083 181.804  0.00  0.00    +0.000 C 
ATOM      2  O   UNL     1      47.009  36.597 180.643  0.00  0.00    +0.000 OA
ENDROOT
BRANCH   1   3
ATOM      3  C   UNL     1      46.051  36.451 182.861  0.00  0.00    +0.000 A 
ATOM      4  C   UNL     1      45.338  35.449 183.497  0.00  0.00    +0.000 A 
ATOM      5  C   UNL     1      44.227  35.917 184.238  0.00  0.00    +0.000 A 
ATOM      6  C   UNL     1      44.054  37.171 184.616  0.00  0.00    +0.000 A 
ATOM      7  C   UNL     1      44.837  38.106 183.999  0.00  0.00    +0.000 A 
ATOM      8  C   UNL     1      45.858  37.730 183.160  0.00  0.00    +0.000 A 
BRANCH   5   9
ATOM      9  O   UNL     1      43.228  34.974 184.598  0.00  0.00    +0.000 OA
ATOM     10  C   UNL     1      43.491  34.013 185.609  0.00  0.00    +0.000 C 
ENDBRANCH   5   9
BRANCH   6  11
ATOM     11  O   UNL     1      43.106  37.528 185.611  0.00  0.00    +0.000 OA
ATOM     12  C   UNL     1      43.468  37.490 186.984  0.00  0.00    +0.000 C 
ENDBRANCH   6  11
BRANCH   7  13
ATOM     13  O   UNL     1      44.590  39.486 184.227  0.00  0.00    +0.000 OA
ATOM     14  C   UNL     1      44.603  40.399 183.139  0.00  0.00    +0.000 C 
ENDBRANCH   7  13
ENDBRANCH   1   3
BRANCH   1  16
ATOM     15  C   UNL     1      48.011  33.772 181.924  0.00  0.00    +0.000 C 
ATOM     16  C   UNL     1      48.192  35.103 182.135  0.00  0.00    +0.000 C 
BRANCH  15  20
ATOM     17  C   UNL     1      50.979  30.838 182.838  0.00  0.00    +0.000 A 
ATOM     18  C   UNL     1      50.680  31.091 181.508  0.00  0.00    +0.000 A 
ATOM     19  C   UNL     1      49.854  32.221 181.311  0.00  0.00    +0.000 A 
ATOM     20  C   UNL     1      49.124  32.790 182.255  0.00  0.00    +0.000 A 
ATOM     21  C   UNL     1      49.424  32.449 183.544  0.00  0.00    +0.000 A 
ATOM     22  C   UNL     1      50.318  31.442 183.819  0.00  0.00    +0.000 A 
BRANCH  17  24
ATOM     23  C   UNL     1      52.326  28.865 182.256  0.00  0.00    +0.000 C 
ATOM     24  O   UNL     1      52.010  29.916 183.157  0.00  0.00    +0.000 OA
ENDBRANCH  17  24
ENDBRANCH  15  20
ENDBRANCH   1  16
TORSDOF 7
ENDMDL
MODEL 3
REMARK VINA RESULT:    -7.164      2.380      8.078
REMARK INTER + INTRA:         -10.809
REMARK INTER:                 -10.236
REMARK INTRA:                  -0.573
REMARK UNBOUND:                -0.713
REMARK  Name = 
REMARK  11 active torsions:
REMARK  status: ('A' for Active; 'I' for Inactive)
REMARK    1  A    between atoms: C_1  and  O_2
REMARK    2  A    between atoms: O_2  and  C_3
REMARK    3  A    between atoms: C_6  and  C_7
REMARK    4  A    between atoms: C_8  and  C_9
REMARK    5  A    between atoms: C_9  and  C_11
REMARK    6  A    between atoms: C_13  and  O_14
REMARK    7  A    between atoms: O_14  and  C_15
REMARK    8  A    between atoms: C_16  and  O_17
REMARK    9  A    between atoms: O_17  and  C_18
REMARK   10  A    between atoms: C_19  and  O_20
REMARK   11  A    between atoms: O_20  and  C_21
REMARK                            x       y       z     vdW  Elec       q    Type
REMARK                         _______ _______ _______ _____ _____    ______ ____
ROOT
ATOM      1  C   UNL     1      47.487  35.968 181.715  0.00  0.00    +0.000 C 
ATOM      2  O   UNL     1      47.633  36.472 180.557  0.00  0.00    +0.000 OA
ENDROOT
BRANCH   1   3
ATOM      3  C   UNL     1      46.347  36.430 182.607  0.00  0.00    +0.000 A 
ATOM      4  C   UNL     1      46.128  37.785 182.790  0.00  0.00    +0.000 A 
ATOM      5  C   UNL     1      45.238  38.085 183.849  0.00  0.00    +0.000 A 
ATOM      6  C   UNL     1      44.404  37.219 184.394  0.00  0.00    +0.000 A 
ATOM      7  C   UNL     1      44.633  35.899 184.121  0.00  0.00    +0.000 A 
ATOM      8  C   UNL     1      45.575  35.523 183.194  0.00  0.00    +0.000 A 
BRANCH   5   9
ATOM      9  O   UNL     1      45.245  39.409 184.362  0.00  0.00    +0.000 OA
ATOM     10  C   UNL     1      44.624  40.457 183.632  0.00  0.00    +0.000 C 
ENDBRANCH   5   9
BRANCH   6  11
ATOM     11  O   UNL     1      43.327  37.636 185.219  0.00  0.00    +0.000 OA
ATOM     12  C   UNL     1      43.530  37.826 186.612  0.00  0.00    +0.000 C 
ENDBRANCH   6  11
BRANCH   7  13
ATOM     13  O   UNL     1      43.886  34.903 184.805  0.00  0.00    +0.000 OA
ATOM     14  C   UNL     1      44.352  34.395 186.047  0.00  0.00    +0.000 C 
ENDBRANCH   7  13
ENDBRANCH   1   3
BRANCH   1  16
ATOM     15  C   UNL     1      48.416  33.652 181.676  0.00  0.00    +0.000 C 
ATOM     16  C   UNL     1      48.453  34.904 182.208  0.00  0.00    +0.000 C 
BRANCH  15  20
ATOM     17  C   UNL     1      50.958  30.499 183.036  0.00  0.00    +0.000 A 
ATOM     18  C   UNL     1      50.825  30.706 181.672  0.00  0.00    +0.000 A 
ATOM     19  C   UNL     1      50.144  31.899 181.337  0.00  0.00    +0.000 A 
ATOM     20  C   UNL     1      49.383  32.587 182.169  0.00  0.00    +0.000 A 
ATOM     21  C   UNL     1      49.511  32.289 183.497  0.00  0.00    +0.000 A 
ATOM     22  C   UNL     1      50.264  31.218 183.912  0.00  0.00    +0.000 A 
BRANCH  17  24
ATOM     23  C   UNL     1      52.815  28.940 182.626  0.00  0.00    +0.000 C 
ATOM     24  O   UNL     1      51.850  29.500 183.505  0.00  0.00    +0.000 OA
ENDBRANCH  17  24
ENDBRANCH  15  20
ENDBRANCH   1  16
TORSDOF 7
ENDMDL
MODEL 4
REMARK VINA RESULT:    -7.104      0.593      2.626
REMARK INTER + INTRA:         -10.725
REMARK INTER:                 -10.051
REMARK INTRA:                  -0.674
REMARK UNBOUND:                -0.713
REMARK  Name = 
REMARK  11 active torsions:
REMARK  status: ('A' for Active; 'I' for Inactive)
REMARK    1  A    between atoms: C_1  and  O_2
REMARK    2  A    between atoms: O_2  and  C_3
REMARK    3  A    between atoms: C_6  and  C_7
REMARK    4  A    between atoms: C_8  and  C_9
REMARK    5  A    between atoms: C_9  and  C_11
REMARK    6  A    between atoms: C_13  and  O_14
REMARK    7  A    between atoms: O_14  and  C_15
REMARK    8  A    between atoms: C_16  and  O_17
REMARK    9  A    between atoms: O_17  and  C_18
REMARK   10  A    between atoms: C_19  and  O_20
REMARK   11  A    between atoms: O_20  and  C_21
REMARK                            x       y       z     vdW  Elec       q    Type
REMARK                         _______ _______ _______ _____ _____    ______ ____
ROOT
ATOM      1  C   UNL     1      46.132  37.292 182.640  0.00  0.00    +0.000 C 
ATOM      2  O   UNL     1      45.610  38.088 181.799  0.00  0.00    +0.000 OA
ENDROOT
BRANCH   1   3
ATOM      3  C   UNL     1      47.242  36.348 182.207  0.00  0.00    +0.000 A 
ATOM      4  C   UNL     1      47.328  35.958 180.881  0.00  0.00    +0.000 A 
ATOM      5  C   UNL     1      48.208  34.872 180.658  0.00  0.00    +0.000 A 
ATOM      6  C   UNL     1      49.139  34.477 181.508  0.00  0.00    +0.000 A 
ATOM      7  C   UNL     1      49.037  34.951 182.786  0.00  0.00    +0.000 A 
ATOM      8  C   UNL     1      48.115  35.917 183.109  0.00  0.00    +0.000 A 
BRANCH   5   9
ATOM      9  O   UNL     1      48.082  34.159 179.437  0.00  0.00    +0.000 OA
ATOM     10  C   UNL     1      48.516  34.749 178.221  0.00  0.00    +0.000 C 
ENDBRANCH   5   9
BRANCH   6  11
ATOM     11  O   UNL     1      50.189  33.606 181.114  0.00  0.00    +0.000 OA
ATOM     12  C   UNL     1      50.017  32.199 181.206  0.00  0.00    +0.000 C 
ENDBRANCH   6  11
BRANCH   7  13
ATOM     13  O   UNL     1      49.896  34.438 183.793  0.00  0.00    +0.000 OA
ATOM     14  C   UNL     1      49.451  33.387 184.639  0.00  0.00    +0.000 C 
ENDBRANCH   7  13
ENDBRANCH   1   3
BRANCH   1  16
ATOM     15  C   UNL     1      44.516  36.603 184.413  0.00  0.00    +0.000 C 
ATOM     16  C   UNL     1      45.647  37.282 184.080  0.00  0.00    +0.000 C 
BRANCH  15  20
ATOM     17  C   UNL     1      43.358  36.675 188.524  0.00  0.00    +0.000 A 
ATOM     18  C   UNL     1      43.168  37.815 187.759  0.00  0.00    +0.000 A 
ATOM     19  C   UNL     1      43.377  37.617 186.374  0.00  0.00    +0.000 A 
ATOM     20  C   UNL     1      44.030  36.593 185.853  0.00  0.00    +0.000 A 
ATOM     21  C   UNL     1      44.247  35.526 186.680  0.00  0.00    +0.000 A 
ATOM     22  C   UNL     1      43.947  35.597 188.019  0.00  0.00    +0.000 A 
BRANCH  17  24
ATOM     23  C   UNL     1      41.618  37.130 190.201  0.00  0.00    +0.000 C 
ATOM     24  O   UNL     1      42.917  36.661 189.873  0.00  0.00    +0.000 OA
ENDBRANCH  17  24
ENDBRANCH  15  20
ENDBRANCH   1  16
TORSDOF 7
ENDMDL
MODEL 5
REMARK VINA RESULT:    -7.072      1.963      8.087
REMARK INTER + INTRA:         -10.679
REMARK INTER:                 -10.063
REMARK INTRA:                  -0.616
REMARK UNBOUND:                -0.713
REMARK  Name = 
REMARK  11 active torsions:
REMARK  status: ('A' for Active; 'I' for Inactive)
REMARK    1  A    between atoms: C_1  and  O_2
REMARK    2  A    between atoms: O_2  and  C_3
REMARK    3  A    between atoms: C_6  and  C_7
REMARK    4  A    between atoms: C_8  and  C_9
REMARK    5  A    between atoms: C_9  and  C_11
REMARK    6  A    between atoms: C_13  and  O_14
REMARK    7  A    between atoms: O_14  and  C_15
REMARK    8  A    between atoms: C_16  and  O_17
REMARK    9  A    between atoms: O_17  and  C_18
REMARK   10  A    between atoms: C_19  and  O_20
REMARK   11  A    between atoms: O_20  and  C_21
REMARK                            x       y       z     vdW  Elec       q    Type
REMARK                         _______ _______ _______ _____ _____    ______ ____
ROOT
ATOM      1  C   UNL     1      45.853  36.673 182.879  0.00  0.00    +0.000 C 
ATOM      2  O   UNL     1      45.906  37.640 182.056  0.00  0.00    +0.000 OA
ENDROOT
BRANCH   1   3
ATOM      3  C   UNL     1      44.948  36.760 184.097  0.00  0.00    +0.000 A 
ATOM      4  C   UNL     1      44.535  38.000 184.553  0.00  0.00    +0.000 A 
ATOM      5  C   UNL     1      43.945  37.971 185.839  0.00  0.00    +0.000 A 
ATOM      6  C   UNL     1      43.484  36.882 186.427  0.00  0.00    +0.000 A 
ATOM      7  C   UNL     1      43.874  35.687 185.888  0.00  0.00    +0.000 A 
ATOM      8  C   UNL     1      44.566  35.641 184.701  0.00  0.00    +0.000 A 
BRANCH   5   9
ATOM      9  O   UNL     1      43.843  39.198 186.548  0.00  0.00    +0.000 OA
ATOM     10  C   UNL     1      44.239  40.411 185.927  0.00  0.00    +0.000 C 
ENDBRANCH   5   9
BRANCH   6  11
ATOM     11  O   UNL     1      42.628  36.948 187.558  0.00  0.00    +0.000 OA
ATOM     12  C   UNL     1      43.156  36.751 188.861  0.00  0.00    +0.000 C 
ENDBRANCH   6  11
BRANCH   7  13
ATOM     13  O   UNL     1      43.560  34.479 186.563  0.00  0.00    +0.000 OA
ATOM     14  C   UNL     1      43.088  33.358 185.829  0.00  0.00    +0.000 C 
ENDBRANCH   7  13
ENDBRANCH   1   3
BRANCH   1  16
ATOM     15  C   UNL     1      48.007  35.419 182.996  0.00  0.00    +0.000 C 
ATOM     16  C   UNL     1      46.694  35.429 182.645  0.00  0.00    +0.000 C 
BRANCH  15  20
ATOM     17  C   UNL     1      50.169  31.801 182.300  0.00  0.00    +0.000 A 
ATOM     18  C   UNL     1      49.791  32.571 181.211  0.00  0.00    +0.000 A 
ATOM     19  C   UNL     1      49.280  33.843 181.558  0.00  0.00    +0.000 A 
ATOM     20  C   UNL     1      48.849  34.175 182.762  0.00  0.00    +0.000 A 
ATOM     21  C   UNL     1      49.198  33.338 183.785  0.00  0.00    +0.000 A 
ATOM     22  C   UNL     1      49.817  32.137 183.536  0.00  0.00    +0.000 A 
BRANCH  17  24
ATOM     23  C   UNL     1      51.313  29.816 183.193  0.00  0.00    +0.000 C 
ATOM     24  O   UNL     1      50.946  30.631 182.090  0.00  0.00    +0.000 OA
ENDBRANCH  17  24
ENDBRANCH  15  20
ENDBRANCH   1  16
TORSDOF 7
ENDMDL
MODEL 6
REMARK VINA RESULT:    -6.684      3.659      7.784
REMARK INTER + INTRA:         -10.133
REMARK INTER:                  -9.393
REMARK INTRA:                  -0.740
REMARK UNBOUND:                -0.713
REMARK  Name = 
REMARK  11 active torsions:
REMARK  status: ('A' for Active; 'I' for Inactive)
REMARK    1  A    between atoms: C_1  and  O_2
REMARK    2  A    between atoms: O_2  and  C_3
REMARK    3  A    between atoms: C_6  and  C_7
REMARK    4  A    between atoms: C_8  and  C_9
REMARK    5  A    between atoms: C_9  and  C_11
REMARK    6  A    between atoms: C_13  and  O_14
REMARK    7  A    between atoms: O_14  and  C_15
REMARK    8  A    between atoms: C_16  and  O_17
REMARK    9  A    between atoms: O_17  and  C_18
REMARK   10  A    between atoms: C_19  and  O_20
REMARK   11  A    between atoms: O_20  and  C_21
REMARK                            x       y       z     vdW  Elec       q    Type
REMARK                         _______ _______ _______ _____ _____    ______ ____
ROOT
ATOM      1  C   UNL     1      46.459  36.044 183.257  0.00  0.00    +0.000 C 
ATOM      2  O   UNL     1      46.048  36.240 184.444  0.00  0.00    +0.000 OA
ENDROOT
BRANCH   1   3
ATOM      3  C   UNL     1      46.220  37.097 182.187  0.00  0.00    +0.000 A 
ATOM      4  C   UNL     1      46.915  37.025 180.992  0.00  0.00    +0.000 A 
ATOM      5  C   UNL     1      46.827  38.198 180.205  0.00  0.00    +0.000 A 
ATOM      6  C   UNL     1      45.913  39.139 180.364  0.00  0.00    +0.000 A 
ATOM      7  C   UNL     1      45.213  39.116 181.538  0.00  0.00    +0.000 A 
ATOM      8  C   UNL     1      45.344  38.067 182.417  0.00  0.00    +0.000 A 
BRANCH   5   9
ATOM      9  O   UNL     1      47.787  38.377 179.174  0.00  0.00    +0.000 OA
ATOM     10  C   UNL     1      48.187  37.272 178.377  0.00  0.00    +0.000 C 
ENDBRANCH   5   9
BRANCH   6  11
ATOM     11  O   UNL     1      45.671  40.121 179.368  0.00  0.00    +0.000 OA
ATOM     12  C   UNL     1      44.777  39.845 178.300  0.00  0.00    +0.000 C 
ENDBRANCH   6  11
BRANCH   7  13
ATOM     13  O   UNL     1      44.340  40.189 181.853  0.00  0.00    +0.000 OA
ATOM     14  C   UNL     1      44.825  41.311 182.577  0.00  0.00    +0.000 C 
ENDBRANCH   7  13
ENDBRANCH   1   3
BRANCH   1  16
ATOM     15  C   UNL     1      48.424  34.515 183.422  0.00  0.00    +0.000 C 
ATOM     16  C   UNL     1      47.188  34.757 182.908  0.00  0.00    +0.000 C 
BRANCH  15  20
ATOM     17  C   UNL     1      50.680  31.017 182.460  0.00  0.00    +0.000 A 
ATOM     18  C   UNL     1      50.486  31.338 183.794  0.00  0.00    +0.000 A 
ATOM     19  C   UNL     1      49.551  32.379 184.004  0.00  0.00    +0.000 A 
ATOM     20  C   UNL     1      49.154  33.228 183.073  0.00  0.00    +0.000 A 
ATOM     21  C   UNL     1      49.434  32.887 181.779  0.00  0.00    +0.000 A 
ATOM     22  C   UNL     1      50.234  31.807 181.490  0.00  0.00    +0.000 A 
BRANCH  17  24
ATOM     23  C   UNL     1      52.564  29.476 182.809  0.00  0.00    +0.000 C 
ATOM     24  O   UNL     1      51.370  29.823 182.125  0.00  0.00    +0.000 OA
ENDBRANCH  17  24
ENDBRANCH  15  20
ENDBRANCH   1  16
TORSDOF 7
ENDMDL
MODEL 7
REMARK VINA RESULT:    -6.676      3.481      7.586
REMARK INTER + INTRA:         -10.121
REMARK INTER:                  -9.363
REMARK INTRA:                  -0.758
REMARK UNBOUND:                -0.713
REMARK  Name = 
REMARK  11 active torsions:
REMARK  status: ('A' for Active; 'I' for Inactive)
REMARK    1  A    between atoms: C_1  and  O_2
REMARK    2  A    between atoms: O_2  and  C_3
REMARK    3  A    between atoms: C_6  and  C_7
REMARK    4  A    between atoms: C_8  and  C_9
REMARK    5  A    between atoms: C_9  and  C_11
REMARK    6  A    between atoms: C_13  and  O_14
REMARK    7  A    between atoms: O_14  and  C_15
REMARK    8  A    between atoms: C_16  and  O_17
REMARK    9  A    between atoms: O_17  and  C_18
REMARK   10  A    between atoms: C_19  and  O_20
REMARK   11  A    between atoms: O_20  and  C_21
REMARK                            x       y       z     vdW  Elec       q    Type
REMARK                         _______ _______ _______ _____ _____    ______ ____
ROOT
ATOM      1  C   UNL     1      46.307  36.134 183.526  0.00  0.00    +0.000 C 
ATOM      2  O   UNL     1      45.915  36.332 184.718  0.00  0.00    +0.000 OA
ENDROOT
BRANCH   1   3
ATOM      3  C   UNL     1      46.054  37.185 182.458  0.00  0.00    +0.000 A 
ATOM      4  C   UNL     1      45.414  38.365 182.799  0.00  0.00    +0.000 A 
ATOM      5  C   UNL     1      44.984  39.127 181.686  0.00  0.00    +0.000 A 
ATOM      6  C   UNL     1      45.430  38.969 180.453  0.00  0.00    +0.000 A 
ATOM      7  C   UNL     1      46.114  37.813 180.196  0.00  0.00    +0.000 A 
ATOM      8  C   UNL     1      46.457  36.955 181.214  0.00  0.00    +0.000 A 
BRANCH   5   9
ATOM      9  O   UNL     1      44.003  40.129 181.911  0.00  0.00    +0.000 OA
ATOM     10  C   UNL     1      44.329  41.284 182.669  0.00  0.00    +0.000 C 
ENDBRANCH   5   9
BRANCH   6  11
ATOM     11  O   UNL     1      45.212  39.948 179.448  0.00  0.00    +0.000 OA
ATOM     12  C   UNL     1      46.179  40.965 179.225  0.00  0.00    +0.000 C 
ENDBRANCH   6  11
BRANCH   7  13
ATOM     13  O   UNL     1      46.474  37.495 178.861  0.00  0.00    +0.000 OA
ATOM     14  C   UNL     1      47.518  36.565 178.609  0.00  0.00    +0.000 C 
ENDBRANCH   7  13
ENDBRANCH   1   3
BRANCH   1  16
ATOM     15  C   UNL     1      48.355  34.711 183.439  0.00  0.00    +0.000 C 
ATOM     16  C   UNL     1      47.029  34.846 183.167  0.00  0.00    +0.000 C 
BRANCH  15  20
ATOM     17  C   UNL     1      50.591  31.209 182.444  0.00  0.00    +0.000 A 
ATOM     18  C   UNL     1      50.430  31.539 183.781  0.00  0.00    +0.000 A 
ATOM     19  C   UNL     1      49.500  32.580 184.006  0.00  0.00    +0.000 A 
ATOM     20  C   UNL     1      49.077  33.422 183.080  0.00  0.00    +0.000 A 
ATOM     21  C   UNL     1      49.326  33.073 181.782  0.00  0.00    +0.000 A 
ATOM     22  C   UNL     1      50.119  31.992 181.480  0.00  0.00    +0.000 A 
BRANCH  17  24
ATOM     23  C   UNL     1      52.330  29.537 182.920  0.00  0.00    +0.000 C 
ATOM     24  O   UNL     1      51.273  30.013 182.100  0.00  0.00    +0.000 OA
ENDBRANCH  17  24
ENDBRANCH  15  20
ENDBRANCH   1  16
TORSDOF 7
ENDMDL
MODEL 8
REMARK VINA RESULT:    -6.543      2.188      3.993
REMARK INTER + INTRA:          -9.933
REMARK INTER:                  -9.179
REMARK INTRA:                  -0.754
REMARK UNBOUND:                -0.713
REMARK  Name = 
REMARK  11 active torsions:
REMARK  status: ('A' for Active; 'I' for Inactive)
REMARK    1  A    between atoms: C_1  and  O_2
REMARK    2  A    between atoms: O_2  and  C_3
REMARK    3  A    between atoms: C_6  and  C_7
REMARK    4  A    between atoms: C_8  and  C_9
REMARK    5  A    between atoms: C_9  and  C_11
REMARK    6  A    between atoms: C_13  and  O_14
REMARK    7  A    between atoms: O_14  and  C_15
REMARK    8  A    between atoms: C_16  and  O_17
REMARK    9  A    between atoms: O_17  and  C_18
REMARK   10  A    between atoms: C_19  and  O_20
REMARK   11  A    between atoms: O_20  and  C_21
REMARK                            x       y       z     vdW  Elec       q    Type
REMARK                         _______ _______ _______ _____ _____    ______ ____
ROOT
ATOM      1  C   UNL     1      46.571  34.838 182.406  0.00  0.00    +0.000 C 
ATOM      2  O   UNL     1      46.715  33.592 182.203  0.00  0.00    +0.000 OA
ENDROOT
BRANCH   1   3
ATOM      3  C   UNL     1      46.924  35.832 181.311  0.00  0.00    +0.000 A 
ATOM      4  C   UNL     1      47.570  35.389 180.168  0.00  0.00    +0.000 A 
ATOM      5  C   UNL     1      48.094  36.430 179.366  0.00  0.00    +0.000 A 
ATOM      6  C   UNL     1      47.729  37.696 179.449  0.00  0.00    +0.000 A 
ATOM      7  C   UNL     1      47.034  38.057 180.570  0.00  0.00    +0.000 A 
ATOM      8  C   UNL     1      46.601  37.110 181.467  0.00  0.00    +0.000 A 
BRANCH   5   9
ATOM      9  O   UNL     1      49.082  36.089 178.405  0.00  0.00    +0.000 OA
ATOM     10  C   UNL     1      48.824  35.071 177.450  0.00  0.00    +0.000 C 
ENDBRANCH   5   9
BRANCH   6  11
ATOM     11  O   UNL     1      48.040  38.633 178.428  0.00  0.00    +0.000 OA
ATOM     12  C   UNL     1      47.151  38.815 177.336  0.00  0.00    +0.000 C 
ENDBRANCH   6  11
BRANCH   7  13
ATOM     13  O   UNL     1      46.757  39.428 180.811  0.00  0.00    +0.000 OA
ATOM     14  C   UNL     1      45.495  39.817 181.335  0.00  0.00    +0.000 C 
ENDBRANCH   7  13
ENDBRANCH   1   3
BRANCH   1  16
ATOM     15  C   UNL     1      44.713  35.302 184.006  0.00  0.00    +0.000 C 
ATOM     16  C   UNL     1      46.047  35.336 183.742  0.00  0.00    +0.000 C 
BRANCH  15  20
ATOM     17  C   UNL     1      43.457  36.789 187.808  0.00  0.00    +0.000 A 
ATOM     18  C   UNL     1      43.442  37.647 186.719  0.00  0.00    +0.000 A 
ATOM     19  C   UNL     1      43.664  37.004 185.480  0.00  0.00    +0.000 A 
ATOM     20  C   UNL     1      44.189  35.800 185.343  0.00  0.00    +0.000 A 
ATOM     21  C   UNL     1      44.236  35.026 186.469  0.00  0.00    +0.000 A 
ATOM     22  C   UNL     1      43.910  35.546 187.699  0.00  0.00    +0.000 A 
BRANCH  17  24
ATOM     23  C   UNL     1      41.582  37.302 189.314  0.00  0.00    +0.000 C 
ATOM     24  O   UNL     1      42.978  37.249 189.063  0.00  0.00    +0.000 OA
ENDBRANCH  17  24
ENDBRANCH  15  20
ENDBRANCH   1  16
TORSDOF 7
ENDMDL
MODEL 9
REMARK VINA RESULT:    -6.539      2.146      4.064
REMARK INTER + INTRA:          -9.928
REMARK INTER:                  -9.215
REMARK INTRA:                  -0.713
REMARK UNBOUND:                -0.713
REMARK  Name = 
REMARK  11 active torsions:
REMARK  status: ('A' for Active; 'I' for Inactive)
REMARK    1  A    between atoms: C_1  and  O_2
REMARK    2  A    between atoms: O_2  and  C_3
REMARK    3  A    between atoms: C_6  and  C_7
REMARK    4  A    between atoms: C_8  and  C_9
REMARK    5  A    between atoms: C_9  and  C_11
REMARK    6  A    between atoms: C_13  and  O_14
REMARK    7  A    between atoms: O_14  and  C_15
REMARK    8  A    between atoms: C_16  and  O_17
REMARK    9  A    between atoms: O_17  and  C_18
REMARK   10  A    between atoms: C_19  and  O_20
REMARK   11  A    between atoms: O_20  and  C_21
REMARK                            x       y       z     vdW  Elec       q    Type
REMARK                         _______ _______ _______ _____ _____    ______ ____
ROOT
ATOM      1  C   UNL     1      46.800  35.710 182.828  0.00  0.00    +0.000 C 
ATOM      2  O   UNL     1      47.237  34.520 182.910  0.00  0.00    +0.000 OA
ENDROOT
BRANCH   1   3
ATOM      3  C   UNL     1      46.979  36.498 181.540  0.00  0.00    +0.000 A 
ATOM      4  C   UNL     1      46.248  37.657 181.341  0.00  0.00    +0.000 A 
ATOM      5  C   UNL     1      46.284  38.137 180.010  0.00  0.00    +0.000 A 
ATOM      6  C   UNL     1      47.180  37.778 179.109  0.00  0.00    +0.000 A 
ATOM      7  C   UNL     1      47.918  36.663 179.395  0.00  0.00    +0.000 A 
ATOM      8  C   UNL     1      47.840  36.062 180.629  0.00  0.00    +0.000 A 
BRANCH   5   9
ATOM      9  O   UNL     1      45.287  39.067 179.616  0.00  0.00    +0.000 OA
ATOM     10  C   UNL     1      44.904  40.113 180.496  0.00  0.00    +0.000 C 
ENDBRANCH   5   9
BRANCH   6  11
ATOM     11  O   UNL     1      47.368  38.510 177.907  0.00  0.00    +0.000 OA
ATOM     12  C   UNL     1      48.273  39.604 177.876  0.00  0.00    +0.000 C 
ENDBRANCH   6  11
BRANCH   7  13
ATOM     13  O   UNL     1      48.777  36.119 178.404  0.00  0.00    +0.000 OA
ATOM     14  C   UNL     1      48.510  34.834 177.860  0.00  0.00    +0.000 C 
ENDBRANCH   7  13
ENDBRANCH   1   3
BRANCH   1  16
ATOM     15  C   UNL     1      45.286  35.597 184.807  0.00  0.00    +0.000 C 
ATOM     16  C   UNL     1      46.099  36.347 184.016  0.00  0.00    +0.000 C 
BRANCH  15  20
ATOM     17  C   UNL     1      43.106  37.329 188.048  0.00  0.00    +0.000 A 
ATOM     18  C   UNL     1      43.351  35.966 188.064  0.00  0.00    +0.000 A 
ATOM     19  C   UNL     1      44.259  35.534 187.069  0.00  0.00    +0.000 A 
ATOM     20  C   UNL     1      44.584  36.234 185.997  0.00  0.00    +0.000 A 
ATOM     21  C   UNL     1      44.255  37.560 186.014  0.00  0.00    +0.000 A 
ATOM     22  C   UNL     1      43.480  38.084 187.021  0.00  0.00    +0.000 A 
BRANCH  17  24
ATOM     23  C   UNL     1      41.838  37.118 190.144  0.00  0.00    +0.000 C 
ATOM     24  O   UNL     1      42.443  37.931 189.149  0.00  0.00    +0.000 OA
ENDBRANCH  17  24
ENDBRANCH  15  20
ENDBRANCH   1  16
TORSDOF 7
ENDMDL
