MODEL 1
REMARK VINA RESULT:    -7.236      0.000      0.000
REMARK INTER + INTRA:         -10.236
REMARK INTER:                  -9.752
REMARK INTRA:                  -0.484
REMARK UNBOUND:                -0.674
REMARK  Name = 
REMARK  8 active torsions:
REMARK  status: ('A' for Active; 'I' for Inactive)
REMARK    1  A    between atoms: C_1  and  O_2
REMARK    2  A    between atoms: O_2  and  C_3
REMARK    3  A    between atoms: C_6  and  C_7
REMARK    4  A    between atoms: C_8  and  C_9
REMARK    5  A    between atoms: C_9  and  C_11
REMARK    6  A    between atoms: C_14  and  O_15
REMARK    7  A    between atoms: O_15  and  C_16
REMARK    8  A    between atoms: C_18  and  O_19
REMARK                            x       y       z     vdW  Elec       q    Type
REMARK                         _______ _______ _______ _____ _____    ______ ____
ROOT
ATOM      1  C   UNL     1      46.200  35.643 183.413  0.00  0.00    +0.000 C 
ATOM      2  O   UNL     1      45.975  36.259 182.324  0.00  0.00    +0.000 OA
ENDROOT
BRANCH   1   3
ATOM      3  C   UNL     1      45.264  35.827 184.596  0.00  0.00    +0.000 A 
ATOM      4  C   UNL     1      45.295  37.014 185.310  0.00  0.00    +0.000 A 
ATOM      5  C   UNL     1      44.604  36.960 186.543  0.00  0.00    +0.000 A 
ATOM      6  C   UNL     1      43.711  36.041 186.862  0.00  0.00    +0.000 A 
ATOM      7  C   UNL     1      43.684  34.922 186.077  0.00  0.00    +0.000 A 
ATOM      8  C   UNL     1      44.430  34.847 184.926  0.00  0.00    +0.000 A 
BRANCH   6   9
ATOM      9  O   UNL     1      42.826  36.207 187.960  0.00  0.00    +0.000 OA
ATOM     10  C   UNL     1      42.784  37.443 188.657  0.00  0.00    +0.000 C 
ENDBRANCH   6   9
BRANCH   8  11
ATOM     11  O   UNL     1      44.310  33.712 184.082  0.00  0.00    +0.000 OA
ATOM     12  H   UNL     1      45.084  33.088 183.968  0.00  0.00    +0.000 HD
ENDBRANCH   8  11
ENDBRANCH   1   3
BRANCH   1  14
ATOM     13  C   UNL     1      47.728  33.891 182.505  0.00  0.00    +0.000 C 
ATOM     14  C   UNL     1      47.403  34.722 183.532  0.00  0.00    +0.000 C 
BRANCH  13  18
ATOM     15  C   UNL     1      50.962  31.120 182.825  0.00  0.00    +0.000 A 
ATOM     16  C   UNL     1      50.497  31.456 181.565  0.00  0.00    +0.000 A 
ATOM     17  C   UNL     1      49.583  32.536 181.560  0.00  0.00    +0.000 A 
ATOM     18  C   UNL     1      48.931  32.970 182.624  0.00  0.00    +0.000 A 
ATOM     19  C   UNL     1      49.398  32.547 183.837  0.00  0.00    +0.000 A 
ATOM     20  C   UNL     1      50.381  31.592 183.923  0.00  0.00    +0.000 A 
BRANCH  15  22
ATOM     21  C   UNL     1      51.938  29.008 182.026  0.00  0.00    +0.000 C 
ATOM     22  O   UNL     1      51.992  30.142 182.878  0.00  0.00    +0.000 OA
ENDBRANCH  15  22
ENDBRANCH  13  18
ENDBRANCH   1  14
TORSDOF 6
ENDMDL
MODEL 2
REMARK VINA RESULT:    -7.172      1.330      8.353
REMARK INTER + INTRA:         -10.152
REMARK INTER:                  -9.490
REMARK INTRA:                  -0.662
REMARK UNBOUND:                -0.674
REMARK  Name = 
REMARK  8 active torsions:
REMARK  status: ('A' for Active; 'I' for Inactive)
REMARK    1  A    between atoms: C_1  and  O_2
REMARK    2  A    between atoms: O_2  and  C_3
REMARK    3  A    between atoms: C_6  and  C_7
REMARK    4  A    between atoms: C_8  and  C_9
REMARK    5  A    between atoms: C_9  and  C_11
REMARK    6  A    between atoms: C_14  and  O_15
REMARK    7  A    between atoms: O_15  and  C_16
REMARK    8  A    between atoms: C_18  and  O_19
REMARK                            x       y       z     vdW  Elec       q    Type
REMARK                         _______ _______ _______ _____ _____    ______ ____
ROOT
ATOM      1  C   UNL     1      47.945  34.779 182.864  0.00  0.00    +0.000 C 
ATOM      2  O   UNL     1      48.046  35.645 181.940  0.00  0.00    +0.000 OA
ENDROOT
BRANCH   1   3
ATOM      3  C   UNL     1      48.881  33.582 182.889  0.00  0.00    +0.000 A 
ATOM      4  C   UNL     1      49.361  33.119 184.103  0.00  0.00    +0.000 A 
ATOM      5  C   UNL     1      50.434  32.204 183.984  0.00  0.00    +0.000 A 
ATOM      6  C   UNL     1      50.743  31.551 182.879  0.00  0.00    +0.000 A 
ATOM      7  C   UNL     1      50.182  32.016 181.722  0.00  0.00    +0.000 A 
ATOM      8  C   UNL     1      49.223  32.998 181.745  0.00  0.00    +0.000 A 
BRANCH   6   9
ATOM      9  O   UNL     1      51.609  30.426 182.892  0.00  0.00    +0.000 OA
ATOM     10  C   UNL     1      51.325  29.301 182.072  0.00  0.00    +0.000 C 
ENDBRANCH   6   9
BRANCH   8  11
ATOM     11  O   UNL     1      48.591  33.395 180.538  0.00  0.00    +0.000 OA
ATOM     12  H   UNL     1      48.458  34.366 180.337  0.00  0.00    +0.000 HD
ENDBRANCH   8  11
ENDBRANCH   1   3
BRANCH   1  14
ATOM     13  C   UNL     1      46.066  36.024 183.936  0.00  0.00    +0.000 C 
ATOM     14  C   UNL     1      46.889  34.941 183.946  0.00  0.00    +0.000 C 
BRANCH  13  18
ATOM     15  C   UNL     1      43.274  36.516 187.130  0.00  0.00    +0.000 A 
ATOM     16  C   UNL     1      43.747  37.644 186.482  0.00  0.00    +0.000 A 
ATOM     17  C   UNL     1      44.487  37.363 185.309  0.00  0.00    +0.000 A 
ATOM     18  C   UNL     1      45.010  36.186 185.017  0.00  0.00    +0.000 A 
ATOM     19  C   UNL     1      44.550  35.121 185.740  0.00  0.00    +0.000 A 
ATOM     20  C   UNL     1      43.720  35.304 186.819  0.00  0.00    +0.000 A 
BRANCH  15  22
ATOM     21  C   UNL     1      42.671  37.789 189.147  0.00  0.00    +0.000 C 
ATOM     22  O   UNL     1      42.402  36.740 188.229  0.00  0.00    +0.000 OA
ENDBRANCH  15  22
ENDBRANCH  13  18
ENDBRANCH   1  14
TORSDOF 6
ENDMDL
MODEL 3
REMARK VINA RESULT:    -7.130      1.634      2.146
REMARK INTER + INTRA:         -10.096
REMARK INTER:                  -9.254
REMARK INTRA:                  -0.842
REMARK UNBOUND:                -0.674
REMARK  Name = 
REMARK  8 active torsions:
REMARK  status: ('A' for Active; 'I' for Inactive)
REMARK    1  A    between atoms: C_1  and  O_2
REMARK    2  A    between atoms: O_2  and  C_3
REMARK    3  A    between atoms: C_6  and  C_7
REMARK    4  A    between atoms: C_8  and  C_9
REMARK    5  A    between atoms: C_9  and  C_11
REMARK    6  A    between atoms: C_14  and  O_15
REMARK    7  A    between atoms: O_15  and  C_16
REMARK    8  A    between atoms: C_18  and  O_19
REMARK                            x       y       z     vdW  Elec       q    Type
REMARK                         _______ _______ _______ _____ _____    ______ ____
ROOT
ATOM      1  C   UNL     1      46.659  36.682 182.352  0.00  0.00    +0.000 C 
ATOM      2  O   UNL     1      46.662  37.534 181.409  0.00  0.00    +0.000 OA
ENDROOT
BRANCH   1   3
ATOM      3  C   UNL     1      45.855  36.949 183.614  0.00  0.00    +0.000 A 
ATOM      4  C   UNL     1      44.912  36.022 184.028  0.00  0.00    +0.000 A 
ATOM      5  C   UNL     1      44.037  36.504 185.030  0.00  0.00    +0.000 A 
ATOM      6  C   UNL     1      44.268  37.566 185.780  0.00  0.00    +0.000 A 
ATOM      7  C   UNL     1      45.258  38.407 185.353  0.00  0.00    +0.000 A 
ATOM      8  C   UNL     1      46.071  38.066 184.300  0.00  0.00    +0.000 A 
BRANCH   6   9
ATOM      9  O   UNL     1      43.529  37.820 186.965  0.00  0.00    +0.000 OA
ATOM     10  C   UNL     1      43.098  36.739 187.779  0.00  0.00    +0.000 C 
ENDBRANCH   6   9
BRANCH   8  11
ATOM     11  O   UNL     1      47.150  38.915 183.939  0.00  0.00    +0.000 OA
ATOM     12  H   UNL     1      47.809  38.620 183.247  0.00  0.00    +0.000 HD
ENDBRANCH   8  11
ENDBRANCH   1   3
BRANCH   1  14
ATOM     13  C   UNL     1      48.422  35.095 183.129  0.00  0.00    +0.000 C 
ATOM     14  C   UNL     1      47.457  35.396 182.217  0.00  0.00    +0.000 C 
BRANCH  13  18
ATOM     15  C   UNL     1      50.465  31.369 182.704  0.00  0.00    +0.000 A 
ATOM     16  C   UNL     1      50.192  32.111 181.568  0.00  0.00    +0.000 A 
ATOM     17  C   UNL     1      49.716  33.416 181.835  0.00  0.00    +0.000 A 
ATOM     18  C   UNL     1      49.221  33.810 182.995  0.00  0.00    +0.000 A 
ATOM     19  C   UNL     1      49.466  32.998 184.067  0.00  0.00    +0.000 A 
ATOM     20  C   UNL     1      50.048  31.765 183.902  0.00  0.00    +0.000 A 
BRANCH  15  22
ATOM     21  C   UNL     1      52.465  29.940 182.779  0.00  0.00    +0.000 C 
ATOM     22  O   UNL     1      51.083  30.106 182.501  0.00  0.00    +0.000 OA
ENDBRANCH  15  22
ENDBRANCH  13  18
ENDBRANCH   1  14
TORSDOF 6
ENDMDL
MODEL 4
REMARK VINA RESULT:    -7.126      1.611      8.073
REMARK INTER + INTRA:         -10.091
REMARK INTER:                  -9.266
REMARK INTRA:                  -0.825
REMARK UNBOUND:                -0.674
REMARK  Name = 
REMARK  8 active torsions:
REMARK  status: ('A' for Active; 'I' for Inactive)
REMARK    1  A    between atoms: C_1  and  O_2
REMARK    2  A    between atoms: O_2  and  C_3
REMARK    3  A    between atoms: C_6  and  C_7
REMARK    4  A    between atoms: C_8  and  C_9
REMARK    5  A    between atoms: C_9  and  C_11
REMARK    6  A    between atoms: C_14  and  O_15
REMARK    7  A    between atoms: O_15  and  C_16
REMARK    8  A    between atoms: C_18  and  O_19
REMARK                            x       y       z     vdW  Elec       q    Type
REMARK                         _______ _______ _______ _____ _____    ______ ____
ROOT
ATOM      1  C   UNL     1      46.622  36.146 182.178  0.00  0.00    +0.000 C 
ATOM      2  O   UNL     1      46.397  36.843 181.139  0.00  0.00    +0.000 OA
ENDROOT
BRANCH   1   3
ATOM      3  C   UNL     1      47.547  34.943 182.098  0.00  0.00    +0.000 A 
ATOM      4  C   UNL     1      48.664  34.889 182.918  0.00  0.00    +0.000 A 
ATOM      5  C   UNL     1      49.591  33.884 182.555  0.00  0.00    +0.000 A 
ATOM      6  C   UNL     1      49.317  32.855 181.774  0.00  0.00    +0.000 A 
ATOM      7  C   UNL     1      48.165  32.940 181.042  0.00  0.00    +0.000 A 
ATOM      8  C   UNL     1      47.270  33.963 181.246  0.00  0.00    +0.000 A 
BRANCH   6   9
ATOM      9  O   UNL     1      50.170  31.723 181.699  0.00  0.00    +0.000 OA
ATOM     10  C   UNL     1      50.816  31.243 182.869  0.00  0.00    +0.000 C 
ENDBRANCH   6   9
BRANCH   8  11
ATOM     11  O   UNL     1      46.040  33.974 180.538  0.00  0.00    +0.000 OA
ATOM     12  H   UNL     1      45.841  34.709 179.890  0.00  0.00    +0.000 HD
ENDBRANCH   8  11
ENDBRANCH   1   3
BRANCH   1  14
ATOM     13  C   UNL     1      44.993  35.722 184.020  0.00  0.00    +0.000 C 
ATOM     14  C   UNL     1      45.967  36.516 183.499  0.00  0.00    +0.000 C 
BRANCH  13  18
ATOM     15  C   UNL     1      43.362  36.844 187.805  0.00  0.00    +0.000 A 
ATOM     16  C   UNL     1      43.447  37.800 186.808  0.00  0.00    +0.000 A 
ATOM     17  C   UNL     1      43.791  37.278 185.539  0.00  0.00    +0.000 A 
ATOM     18  C   UNL     1      44.338  36.092 185.341  0.00  0.00    +0.000 A 
ATOM     19  C   UNL     1      44.282  35.215 186.388  0.00  0.00    +0.000 A 
ATOM     20  C   UNL     1      43.835  35.615 187.623  0.00  0.00    +0.000 A 
BRANCH  15  22
ATOM     21  C   UNL     1      41.491  37.202 189.361  0.00  0.00    +0.000 C 
ATOM     22  O   UNL     1      42.877  37.286 189.065  0.00  0.00    +0.000 OA
ENDBRANCH  15  22
ENDBRANCH  13  18
ENDBRANCH   1  14
TORSDOF 6
ENDMDL
MODEL 5
REMARK VINA RESULT:    -6.960      1.613      2.635
REMARK INTER + INTRA:          -9.871
REMARK INTER:                  -9.277
REMARK INTRA:                  -0.594
REMARK UNBOUND:                -0.674
REMARK  Name = 
REMARK  8 active torsions:
REMARK  status: ('A' for Active; 'I' for Inactive)
REMARK    1  A    between atoms: C_1  and  O_2
REMARK    2  A    between atoms: O_2  and  C_3
REMARK    3  A    between atoms: C_6  and  C_7
REMARK    4  A    between atoms: C_8  and  C_9
REMARK    5  A    between atoms: C_9  and  C_11
REMARK    6  A    between atoms: C_14  and  O_15
REMARK    7  A    between atoms: O_15  and  C_16
REMARK    8  A    between atoms: C_18  and  O_19
REMARK                            x       y       z     vdW  Elec       q    Type
REMARK                         _______ _______ _______ _____ _____    ______ ____
ROOT
ATOM      1  C   UNL     1      44.536  36.783 184.251  0.00  0.00    +0.000 C 
ATOM      2  O   UNL     1      44.044  37.684 183.502  0.00  0.00    +0.000 OA
ENDROOT
BRANCH   1   3
ATOM      3  C   UNL     1      44.160  36.730 185.723  0.00  0.00    +0.000 A 
ATOM      4  C   UNL     1      44.196  35.516 186.390  0.00  0.00    +0.000 A 
ATOM      5  C   UNL     1      43.556  35.537 187.652  0.00  0.00    +0.000 A 
ATOM      6  C   UNL     1      43.264  36.634 188.327  0.00  0.00    +0.000 A 
ATOM      7  C   UNL     1      43.313  37.808 187.627  0.00  0.00    +0.000 A 
ATOM      8  C   UNL     1      43.803  37.848 186.345  0.00  0.00    +0.000 A 
BRANCH   6   9
ATOM      9  O   UNL     1      42.920  36.596 189.704  0.00  0.00    +0.000 OA
ATOM     10  C   UNL     1      41.678  37.130 190.140  0.00  0.00    +0.000 C 
ENDBRANCH   6   9
BRANCH   8  11
ATOM     11  O   UNL     1      43.930  39.094 185.678  0.00  0.00    +0.000 OA
ATOM     12  H   UNL     1      44.658  39.729 185.936  0.00  0.00    +0.000 HD
ENDBRANCH   8  11
ENDBRANCH   1   3
BRANCH   1  14
ATOM     13  C   UNL     1      46.838  35.894 183.878  0.00  0.00    +0.000 C 
ATOM     14  C   UNL     1      45.499  35.758 183.675  0.00  0.00    +0.000 C 
BRANCH  13  18
ATOM     15  C   UNL     1      49.432  32.848 182.383  0.00  0.00    +0.000 A 
ATOM     16  C   UNL     1      48.220  33.060 181.748  0.00  0.00    +0.000 A 
ATOM     17  C   UNL     1      47.542  34.225 182.179  0.00  0.00    +0.000 A 
ATOM     18  C   UNL     1      47.802  34.870 183.302  0.00  0.00    +0.000 A 
ATOM     19  C   UNL     1      48.983  34.566 183.918  0.00  0.00    +0.000 A 
ATOM     20  C   UNL     1      49.765  33.527 183.476  0.00  0.00    +0.000 A 
BRANCH  15  22
ATOM     21  C   UNL     1      51.033  31.023 182.780  0.00  0.00    +0.000 C 
ATOM     22  O   UNL     1      50.225  31.778 181.889  0.00  0.00    +0.000 OA
ENDBRANCH  15  22
ENDBRANCH  13  18
ENDBRANCH   1  14
TORSDOF 6
ENDMDL
MODEL 6
REMARK VINA RESULT:    -6.836      3.777      8.199
REMARK INTER + INTRA:          -9.708
REMARK INTER:                  -9.116
REMARK INTRA:                  -0.591
REMARK UNBOUND:                -0.674
REMARK  Name = 
REMARK  8 active torsions:
REMARK  status: ('A' for Active; 'I' for Inactive)
REMARK    1  A    between atoms: C_1  and  O_2
REMARK    2  A    between atoms: O_2  and  C_3
REMARK    3  A    between atoms: C_6  and  C_7
REMARK    4  A    between atoms: C_8  and  C_9
REMARK    5  A    between atoms: C_9  and  C_11
REMARK    6  A    between atoms: C_14  and  O_15
REMARK    7  A    between atoms: O_15  and  C_16
REMARK    8  A    between atoms: C_18  and  O_19
REMARK                            x       y       z     vdW  Elec       q    Type
REMARK                         _______ _______ _______ _____ _____    ______ ____
ROOT
ATOM      1  C   UNL     1      48.993  34.886 183.349  0.00  0.00    +0.000 C 
ATOM      2  O   UNL     1      49.085  35.479 184.469  0.00  0.00    +0.000 OA
ENDROOT
BRANCH   1   3
ATOM      3  C   UNL     1      49.635  33.521 183.157  0.00  0.00    +0.000 A 
ATOM      4  C   UNL     1      50.280  33.235 181.964  0.00  0.00    +0.000 A 
ATOM      5  C   UNL     1      50.577  31.863 181.789  0.00  0.00    +0.000 A 
ATOM      6  C   UNL     1      50.596  30.969 182.762  0.00  0.00    +0.000 A 
ATOM      7  C   UNL     1      50.002  31.339 183.937  0.00  0.00    +0.000 A 
ATOM      8  C   UNL     1      49.568  32.627 184.136  0.00  0.00    +0.000 A 
BRANCH   6   9
ATOM      9  O   UNL     1      51.200  29.696 182.596  0.00  0.00    +0.000 OA
ATOM     10  C   UNL     1      52.592  29.535 182.828  0.00  0.00    +0.000 C 
ENDBRANCH   6   9
BRANCH   8  11
ATOM     11  O   UNL     1      49.042  33.005 185.400  0.00  0.00    +0.000 OA
ATOM     12  H   UNL     1      48.109  33.358 185.468  0.00  0.00    +0.000 HD
ENDBRANCH   8  11
ENDBRANCH   1   3
BRANCH   1  14
ATOM     13  C   UNL     1      47.476  36.642 182.429  0.00  0.00    +0.000 C 
ATOM     14  C   UNL     1      48.241  35.540 182.201  0.00  0.00    +0.000 C 
BRANCH  13  18
ATOM     15  C   UNL     1      45.571  38.559 179.122  0.00  0.00    +0.000 A 
ATOM     16  C   UNL     1      46.102  37.294 178.941  0.00  0.00    +0.000 A 
ATOM     17  C   UNL     1      46.509  36.665 180.142  0.00  0.00    +0.000 A 
ATOM     18  C   UNL     1      46.725  37.296 181.282  0.00  0.00    +0.000 A 
ATOM     19  C   UNL     1      46.234  38.569 181.374  0.00  0.00    +0.000 A 
ATOM     20  C   UNL     1      45.702  39.202 180.278  0.00  0.00    +0.000 A 
BRANCH  15  22
ATOM     21  C   UNL     1      45.425  38.777 176.677  0.00  0.00    +0.000 C 
ATOM     22  O   UNL     1      45.010  39.179 177.974  0.00  0.00    +0.000 OA
ENDBRANCH  15  22
ENDBRANCH  13  18
ENDBRANCH   1  14
TORSDOF 6
ENDMDL
MODEL 7
REMARK VINA RESULT:    -6.767      4.526      6.747
REMARK INTER + INTRA:          -9.617
REMARK INTER:                  -8.943
REMARK INTRA:                  -0.674
REMARK UNBOUND:                -0.674
REMARK  Name = 
REMARK  8 active torsions:
REMARK  status: ('A' for Active; 'I' for Inactive)
REMARK    1  A    between atoms: C_1  and  O_2
REMARK    2  A    between atoms: O_2  and  C_3
REMARK    3  A    between atoms: C_6  and  C_7
REMARK    4  A    between atoms: C_8  and  C_9
REMARK    5  A    between atoms: C_9  and  C_11
REMARK    6  A    between atoms: C_14  and  O_15
REMARK    7  A    between atoms: O_15  and  C_16
REMARK    8  A    between atoms: C_18  and  O_19
REMARK                            x       y       z     vdW  Elec       q    Type
REMARK                         _______ _______ _______ _____ _____    ______ ____
ROOT
ATOM      1  C   UNL     1      45.639  36.156 184.218  0.00  0.00    +0.000 C 
ATOM      2  O   UNL     1      46.690  35.455 184.353  0.00  0.00    +0.000 OA
ENDROOT
BRANCH   1   3
ATOM      3  C   UNL     1      44.707  36.361 185.401  0.00  0.00    +0.000 A 
ATOM      4  C   UNL     1      44.095  37.591 185.580  0.00  0.00    +0.000 A 
ATOM      5  C   UNL     1      43.495  37.753 186.850  0.00  0.00    +0.000 A 
ATOM      6  C   UNL     1      43.199  36.763 187.672  0.00  0.00    +0.000 A 
ATOM      7  C   UNL     1      43.782  35.556 187.402  0.00  0.00    +0.000 A 
ATOM      8  C   UNL     1      44.493  35.357 186.245  0.00  0.00    +0.000 A 
BRANCH   6   9
ATOM      9  O   UNL     1      42.323  36.942 188.775  0.00  0.00    +0.000 OA
ATOM     10  C   UNL     1      42.429  38.104 189.585  0.00  0.00    +0.000 C 
ENDBRANCH   6   9
BRANCH   8  11
ATOM     11  O   UNL     1      45.007  34.067 185.946  0.00  0.00    +0.000 OA
ATOM     12  H   UNL     1      45.675  33.952 185.211  0.00  0.00    +0.000 HD
ENDBRANCH   8  11
ENDBRANCH   1   3
BRANCH   1  14
ATOM     13  C   UNL     1      45.962  37.918 182.481  0.00  0.00    +0.000 C 
ATOM     14  C   UNL     1      45.313  36.789 182.876  0.00  0.00    +0.000 C 
BRANCH  13  18
ATOM     15  C   UNL     1      45.257  39.806 178.715  0.00  0.00    +0.000 A 
ATOM     16  C   UNL     1      45.984  38.628 178.742  0.00  0.00    +0.000 A 
ATOM     17  C   UNL     1      45.972  37.975 179.998  0.00  0.00    +0.000 A 
ATOM     18  C   UNL     1      45.637  38.551 181.138  0.00  0.00    +0.000 A 
ATOM     19  C   UNL     1      44.981  39.747 181.046  0.00  0.00    +0.000 A 
ATOM     20  C   UNL     1      44.838  40.383 179.836  0.00  0.00    +0.000 A 
BRANCH  15  22
ATOM     21  C   UNL     1      45.707  41.694 177.204  0.00  0.00    +0.000 C 
ATOM     22  O   UNL     1      45.111  40.429 177.447  0.00  0.00    +0.000 OA
ENDBRANCH  15  22
ENDBRANCH  13  18
ENDBRANCH   1  14
TORSDOF 6
ENDMDL
MODEL 8
REMARK VINA RESULT:    -6.763      3.715      4.408
REMARK INTER + INTRA:          -9.612
REMARK INTER:                  -8.802
REMARK INTRA:                  -0.809
REMARK UNBOUND:                -0.674
REMARK  Name = 
REMARK  8 active torsions:
REMARK  status: ('A' for Active; 'I' for Inactive)
REMARK    1  A    between atoms: C_1  and  O_2
REMARK    2  A    between atoms: O_2  and  C_3
REMARK    3  A    between atoms: C_6  and  C_7
REMARK    4  A    between atoms: C_8  and  C_9
REMARK    5  A    between atoms: C_9  and  C_11
REMARK    6  A    between atoms: C_14  and  O_15
REMARK    7  A    between atoms: O_15  and  C_16
REMARK    8  A    between atoms: C_18  and  O_19
REMARK                            x       y       z     vdW  Elec       q    Type
REMARK                         _______ _______ _______ _____ _____    ______ ____
ROOT
ATOM      1  C   UNL     1      45.434  39.120 183.059  0.00  0.00    +0.000 C 
ATOM      2  O   UNL     1      45.343  40.387 183.007  0.00  0.00    +0.000 OA
ENDROOT
BRANCH   1   3
ATOM      3  C   UNL     1      44.817  38.362 184.224  0.00  0.00    +0.000 A 
ATOM      4  C   UNL     1      45.614  37.998 185.296  0.00  0.00    +0.000 A 
ATOM      5  C   UNL     1      45.010  37.059 186.166  0.00  0.00    +0.000 A 
ATOM      6  C   UNL     1      43.715  36.803 186.210  0.00  0.00    +0.000 A 
ATOM      7  C   UNL     1      42.972  37.249 185.153  0.00  0.00    +0.000 A 
ATOM      8  C   UNL     1      43.523  38.062 184.193  0.00  0.00    +0.000 A 
BRANCH   6   9
ATOM      9  O   UNL     1      43.128  36.103 187.297  0.00  0.00    +0.000 OA
ATOM     10  C   UNL     1      43.050  36.715 188.576  0.00  0.00    +0.000 C 
ENDBRANCH   6   9
BRANCH   8  11
ATOM     11  O   UNL     1      42.704  38.587 183.159  0.00  0.00    +0.000 OA
ATOM     12  H   UNL     1      42.744  38.193 182.240  0.00  0.00    +0.000 HD
ENDBRANCH   8  11
ENDBRANCH   1   3
BRANCH   1  14
ATOM     13  C   UNL     1      46.052  37.009 181.880  0.00  0.00    +0.000 C 
ATOM     14  C   UNL     1      46.159  38.364 181.959  0.00  0.00    +0.000 C 
BRANCH  13  18
ATOM     15  C   UNL     1      48.272  34.855 178.935  0.00  0.00    +0.000 A 
ATOM     16  C   UNL     1      47.539  34.142 179.868  0.00  0.00    +0.000 A 
ATOM     17  C   UNL     1      46.674  34.942 180.652  0.00  0.00    +0.000 A 
ATOM     18  C   UNL     1      46.777  36.253 180.779  0.00  0.00    +0.000 A 
ATOM     19  C   UNL     1      47.571  36.892 179.868  0.00  0.00    +0.000 A 
ATOM     20  C   UNL     1      48.345  36.181 178.983  0.00  0.00    +0.000 A 
BRANCH  15  22
ATOM     21  C   UNL     1      49.051  34.424 176.642  0.00  0.00    +0.000 C 
ATOM     22  O   UNL     1      49.046  34.090 178.022  0.00  0.00    +0.000 OA
ENDBRANCH  15  22
ENDBRANCH  13  18
ENDBRANCH   1  14
TORSDOF 6
ENDMDL
MODEL 9
REMARK VINA RESULT:    -6.763      4.093      8.317
REMARK INTER + INTRA:          -9.611
REMARK INTER:                  -8.916
REMARK INTRA:                  -0.695
REMARK UNBOUND:                -0.674
REMARK  Name = 
REMARK  8 active torsions:
REMARK  status: ('A' for Active; 'I' for Inactive)
REMARK    1  A    between atoms: C_1  and  O_2
REMARK    2  A    between atoms: O_2  and  C_3
REMARK    3  A    between atoms: C_6  and  C_7
REMARK    4  A    between atoms: C_8  and  C_9
REMARK    5  A    between atoms: C_9  and  C_11
REMARK    6  A    between atoms: C_14  and  O_15
REMARK    7  A    between atoms: O_15  and  C_16
REMARK    8  A    between atoms: C_18  and  O_19
REMARK                            x       y       z     vdW  Elec       q    Type
REMARK                         _______ _______ _______ _____ _____    ______ ____
ROOT
ATOM      1  C   UNL     1      47.940  34.477 182.432  0.00  0.00    +0.000 C 
ATOM      2  O   UNL     1      46.846  34.415 183.075  0.00  0.00    +0.000 OA
ENDROOT
BRANCH   1   3
ATOM      3  C   UNL     1      48.980  33.381 182.595  0.00  0.00    +0.000 A 
ATOM      4  C   UNL     1      49.613  32.873 181.472  0.00  0.00    +0.000 A 
ATOM      5  C   UNL     1      50.331  31.677 181.711  0.00  0.00    +0.000 A 
ATOM      6  C   UNL     1      50.696  31.247 182.905  0.00  0.00    +0.000 A 
ATOM      7  C   UNL     1      50.082  31.837 183.976  0.00  0.00    +0.000 A 
ATOM      8  C   UNL     1      49.264  32.928 183.811  0.00  0.00    +0.000 A 
BRANCH   6   9
ATOM      9  O   UNL     1      51.672  30.230 183.069  0.00  0.00    +0.000 OA
ATOM     10  C   UNL     1      51.749  29.163 182.134  0.00  0.00    +0.000 C 
ENDBRANCH   6   9
BRANCH   8  11
ATOM     11  O   UNL     1      48.716  33.576 184.948  0.00  0.00    +0.000 OA
ATOM     12  H   UNL     1      49.283  34.195 185.493  0.00  0.00    +0.000 HD
ENDBRANCH   8  11
ENDBRANCH   1   3
BRANCH   1  14
ATOM     13  C   UNL     1      47.282  36.001 180.567  0.00  0.00    +0.000 C 
ATOM     14  C   UNL     1      48.209  35.647 181.500  0.00  0.00    +0.000 C 
BRANCH  13  18
ATOM     15  C   UNL     1      47.825  39.253 177.852  0.00  0.00    +0.000 A 
ATOM     16  C   UNL     1      47.140  39.480 179.034  0.00  0.00    +0.000 A 
ATOM     17  C   UNL     1      47.208  38.406 179.952  0.00  0.00    +0.000 A 
ATOM     18  C   UNL     1      47.551  37.171 179.635  0.00  0.00    +0.000 A 
ATOM     19  C   UNL     1      48.162  37.001 178.424  0.00  0.00    +0.000 A 
ATOM     20  C   UNL     1      48.252  38.037 177.527  0.00  0.00    +0.000 A 
BRANCH  15  22
ATOM     21  C   UNL     1      47.264  41.573 177.259  0.00  0.00    +0.000 C 
ATOM     22  O   UNL     1      47.916  40.349 176.954  0.00  0.00    +0.000 OA
ENDBRANCH  15  22
ENDBRANCH  13  18
ENDBRANCH   1  14
TORSDOF 6
ENDMDL
