MODEL 1
REMARK VINA RESULT:    -7.187      0.000      0.000
REMARK INTER + INTRA:           8.710
REMARK INTER:                  -7.888
REMARK INTRA:                  16.597
REMARK UNBOUND:                16.527
REMARK  Name = 
REMARK  2 active torsions:
REMARK  status: ('A' for Active; 'I' for Inactive)
REMARK    1  A    between atoms: C_4  and  C_7
REMARK    2  A    between atoms: C_12  and  O_18
REMARK                            x       y       z     vdW  Elec       q    Type
REMARK                         _______ _______ _______ _____ _____    ______ ____
ROOT
ATOM      1  C   UNL     1      46.321  34.206 182.060  0.00  0.00    +0.000 A 
ATOM      2  C   UNL     1      46.362  35.335 182.954  0.00  0.00    +0.000 A 
ATOM      3  C   UNL     1      47.628  35.900 183.343  0.00  0.00    +0.000 A 
ATOM      4  O   UNL     1      47.663  36.897 184.131  0.00  0.00    +0.000 OA
ATOM      5  C   UNL     1      48.921  35.305 182.811  0.00  0.00    +0.000 A 
ATOM      6  C   UNL     1      49.977  35.089 183.681  0.00  0.00    +0.000 A 
ATOM      7  C   UNL     1      51.206  34.815 183.033  0.00  0.00    +0.000 A 
ATOM      8  C   UNL     1      51.320  34.433 181.775  0.00  0.00    +0.000 A 
ATOM      9  C   UNL     1      50.219  34.611 180.983  0.00  0.00    +0.000 A 
ATOM     10  C   UNL     1      49.018  35.003 181.522  0.00  0.00    +0.000 A 
ATOM     11  O   UNL     1      45.138  33.678 181.697  0.00  0.00    +0.000 OA
ENDROOT
BRANCH   1  15
ATOM     12  C   UNL     1      49.831  32.349 180.488  0.00  0.00    +0.000 A 
ATOM     13  C   UNL     1      49.046  33.113 179.640  0.00  0.00    +0.000 A 
ATOM     14  C   UNL     1      48.041  33.856 180.303  0.00  0.00    +0.000 A 
ATOM     15  C   UNL     1      47.615  33.611 181.529  0.00  0.00    +0.000 A 
ATOM     16  C   UNL     1      48.400  32.794 182.294  0.00  0.00    +0.000 A 
ATOM     17  C   UNL     1      49.476  32.136 181.749  0.00  0.00    +0.000 A 
ENDBRANCH   1  15
BRANCH   6  18
ATOM     18  O   UNL     1      49.841  35.139 185.094  0.00  0.00    +0.000 OA
ATOM     19  H   UNL     1      49.473  34.352 185.588  0.00  0.00    +0.000 HD
ENDBRANCH   6  18
TORSDOF 2
ENDMDL
MODEL 2
REMARK VINA RESULT:    -7.109      3.278      6.742
REMARK INTER + INTRA:           8.795
REMARK INTER:                  -7.815
REMARK INTRA:                  16.611
REMARK UNBOUND:                16.527
REMARK  Name = 
REMARK  2 active torsions:
REMARK  status: ('A' for Active; 'I' for Inactive)
REMARK    1  A    between atoms: C_4  and  C_7
REMARK    2  A    between atoms: C_12  and  O_18
REMARK                            x       y       z     vdW  Elec       q    Type
REMARK                         _______ _______ _______ _____ _____    ______ ____
ROOT
ATOM      1  C   UNL     1      47.363  37.063 184.315  0.00  0.00    +0.000 A 
ATOM      2  C   UNL     1      47.336  35.931 183.424  0.00  0.00    +0.000 A 
ATOM      3  C   UNL     1      46.078  35.339 183.049  0.00  0.00    +0.000 A 
ATOM      4  O   UNL     1      46.056  34.341 182.263  0.00  0.00    +0.000 OA
ATOM      5  C   UNL     1      44.778  35.907 183.594  0.00  0.00    +0.000 A 
ATOM      6  C   UNL     1      43.807  35.044 184.073  0.00  0.00    +0.000 A 
ATOM      7  C   UNL     1      42.547  35.655 184.276  0.00  0.00    +0.000 A 
ATOM      8  C   UNL     1      42.352  36.958 184.368  0.00  0.00    +0.000 A 
ATOM      9  C   UNL     1      43.375  37.757 183.941  0.00  0.00    +0.000 A 
ATOM     10  C   UNL     1      44.595  37.223 183.601  0.00  0.00    +0.000 A 
ATOM     11  O   UNL     1      48.538  37.615 184.665  0.00  0.00    +0.000 OA
ENDROOT
BRANCH   1  15
ATOM     12  C   UNL     1      43.837  38.789 185.998  0.00  0.00    +0.000 A 
ATOM     13  C   UNL     1      44.511  39.485 185.008  0.00  0.00    +0.000 A 
ATOM     14  C   UNL     1      45.527  38.735 184.370  0.00  0.00    +0.000 A 
ATOM     15  C   UNL     1      46.063  37.631 184.859  0.00  0.00    +0.000 A 
ATOM     16  C   UNL     1      45.385  37.028 185.882  0.00  0.00    +0.000 A 
ATOM     17  C   UNL     1      44.304  37.639 186.470  0.00  0.00    +0.000 A 
ENDBRANCH   1  15
BRANCH   6  18
ATOM     18  O   UNL     1      44.053  33.670 184.337  0.00  0.00    +0.000 OA
ATOM     19  H   UNL     1      43.296  33.017 184.324  0.00  0.00    +0.000 HD
ENDBRANCH   6  18
TORSDOF 2
ENDMDL
MODEL 3
REMARK VINA RESULT:    -7.054      1.896      3.612
REMARK INTER + INTRA:           8.855
REMARK INTER:                  -7.690
REMARK INTRA:                  16.545
REMARK UNBOUND:                16.527
REMARK  Name = 
REMARK  2 active torsions:
REMARK  status: ('A' for Active; 'I' for Inactive)
REMARK    1  A    between atoms: C_4  and  C_7
REMARK    2  A    between atoms: C_12  and  O_18
REMARK                            x       y       z     vdW  Elec       q    Type
REMARK                         _______ _______ _______ _____ _____    ______ ____
ROOT
ATOM      1  C   UNL     1      49.274  32.392 180.329  0.00  0.00    +0.000 A 
ATOM      2  C   UNL     1      50.123  31.942 181.402  0.00  0.00    +0.000 A 
ATOM      3  C   UNL     1      50.085  32.609 182.678  0.00  0.00    +0.000 A 
ATOM      4  O   UNL     1      50.834  32.211 183.625  0.00  0.00    +0.000 OA
ATOM      5  C   UNL     1      49.150  33.788 182.892  0.00  0.00    +0.000 A 
ATOM      6  C   UNL     1      49.623  34.922 183.530  0.00  0.00    +0.000 A 
ATOM      7  C   UNL     1      48.605  35.821 183.931  0.00  0.00    +0.000 A 
ATOM      8  C   UNL     1      47.372  35.815 183.458  0.00  0.00    +0.000 A 
ATOM      9  C   UNL     1      46.987  34.692 182.778  0.00  0.00    +0.000 A 
ATOM     10  C   UNL     1      47.895  33.711 182.464  0.00  0.00    +0.000 A 
ATOM     11  O   UNL     1      49.310  31.769 179.137  0.00  0.00    +0.000 OA
ENDROOT
BRANCH   1  15
ATOM     12  C   UNL     1      46.598  35.700 180.698  0.00  0.00    +0.000 A 
ATOM     13  C   UNL     1      46.078  34.417 180.731  0.00  0.00    +0.000 A 
ATOM     14  C   UNL     1      47.060  33.402 180.822  0.00  0.00    +0.000 A 
ATOM     15  C   UNL     1      48.339  33.571 180.543  0.00  0.00    +0.000 A 
ATOM     16  C   UNL     1      48.778  34.863 180.457  0.00  0.00    +0.000 A 
ATOM     17  C   UNL     1      47.893  35.914 180.491  0.00  0.00    +0.000 A 
ENDBRANCH   1  15
BRANCH   6  18
ATOM     18  O   UNL     1      51.003  35.163 183.764  0.00  0.00    +0.000 OA
ATOM     19  H   UNL     1      51.374  35.084 184.689  0.00  0.00    +0.000 HD
ENDBRANCH   6  18
TORSDOF 2
ENDMDL
MODEL 4
REMARK VINA RESULT:    -7.023      3.748      6.387
REMARK INTER + INTRA:           8.888
REMARK INTER:                  -7.634
REMARK INTRA:                  16.522
REMARK UNBOUND:                16.527
REMARK  Name = 
REMARK  2 active torsions:
REMARK  status: ('A' for Active; 'I' for Inactive)
REMARK    1  A    between atoms: C_4  and  C_7
REMARK    2  A    between atoms: C_12  and  O_18
REMARK                            x       y       z     vdW  Elec       q    Type
REMARK                         _______ _______ _______ _____ _____    ______ ____
ROOT
ATOM      1  C   UNL     1      46.407  36.838 182.162  0.00  0.00    +0.000 A 
ATOM      2  C   UNL     1      46.021  35.450 182.163  0.00  0.00    +0.000 A 
ATOM      3  C   UNL     1      45.136  34.950 183.184  0.00  0.00    +0.000 A 
ATOM      4  O   UNL     1      44.795  33.725 183.183  0.00  0.00    +0.000 OA
ATOM      5  C   UNL     1      44.611  35.885 184.260  0.00  0.00    +0.000 A 
ATOM      6  C   UNL     1      44.615  35.470 185.581  0.00  0.00    +0.000 A 
ATOM      7  C   UNL     1      43.845  36.290 186.441  0.00  0.00    +0.000 A 
ATOM      8  C   UNL     1      43.452  37.517 186.153  0.00  0.00    +0.000 A 
ATOM      9  C   UNL     1      43.536  37.890 184.840  0.00  0.00    +0.000 A 
ATOM     10  C   UNL     1      44.158  37.085 183.916  0.00  0.00    +0.000 A 
ATOM     11  O   UNL     1      47.233  37.305 181.209  0.00  0.00    +0.000 OA
ENDROOT
BRANCH   1  15
ATOM     12  C   UNL     1      45.080  39.633 185.106  0.00  0.00    +0.000 A 
ATOM     13  C   UNL     1      44.509  39.674 183.845  0.00  0.00    +0.000 A 
ATOM     14  C   UNL     1      44.856  38.576 183.023  0.00  0.00    +0.000 A 
ATOM     15  C   UNL     1      45.882  37.773 183.239  0.00  0.00    +0.000 A 
ATOM     16  C   UNL     1      46.446  37.829 184.483  0.00  0.00    +0.000 A 
ATOM     17  C   UNL     1      46.068  38.791 185.388  0.00  0.00    +0.000 A 
ENDBRANCH   1  15
BRANCH   6  18
ATOM     18  O   UNL     1      45.325  34.326 186.033  0.00  0.00    +0.000 OA
ATOM     19  H   UNL     1      45.076  33.419 185.694  0.00  0.00    +0.000 HD
ENDBRANCH   6  18
TORSDOF 2
ENDMDL
MODEL 5
REMARK VINA RESULT:    -6.919      4.016      6.119
REMARK INTER + INTRA:           9.002
REMARK INTER:                  -7.518
REMARK INTRA:                  16.520
REMARK UNBOUND:                16.527
REMARK  Name = 
REMARK  2 active torsions:
REMARK  status: ('A' for Active; 'I' for Inactive)
REMARK    1  A    between atoms: C_4  and  C_7
REMARK    2  A    between atoms: C_12  and  O_18
REMARK                            x       y       z     vdW  Elec       q    Type
REMARK                         _______ _______ _______ _____ _____    ______ ____
ROOT
ATOM      1  C   UNL     1      44.335  38.922 185.808  0.00  0.00    +0.000 A 
ATOM      2  C   UNL     1      43.636  37.910 186.558  0.00  0.00    +0.000 A 
ATOM      3  C   UNL     1      43.766  36.524 186.190  0.00  0.00    +0.000 A 
ATOM      4  O   UNL     1      43.150  35.631 186.852  0.00  0.00    +0.000 OA
ATOM      5  C   UNL     1      44.639  36.129 185.010  0.00  0.00    +0.000 A 
ATOM      6  C   UNL     1      44.165  35.208 184.092  0.00  0.00    +0.000 A 
ATOM      7  C   UNL     1      45.159  34.704 183.219  0.00  0.00    +0.000 A 
ATOM      8  C   UNL     1      46.332  35.273 183.012  0.00  0.00    +0.000 A 
ATOM      9  C   UNL     1      46.714  36.224 183.917  0.00  0.00    +0.000 A 
ATOM     10  C   UNL     1      45.844  36.673 184.880  0.00  0.00    +0.000 A 
ATOM     11  O   UNL     1      44.213  40.217 186.151  0.00  0.00    +0.000 OA
ENDROOT
BRANCH   1  15
ATOM     12  C   UNL     1      46.814  38.043 182.443  0.00  0.00    +0.000 A 
ATOM     13  C   UNL     1      47.417  38.347 183.652  0.00  0.00    +0.000 A 
ATOM     14  C   UNL     1      46.518  38.405 184.743  0.00  0.00    +0.000 A 
ATOM     15  C   UNL     1      45.208  38.527 184.629  0.00  0.00    +0.000 A 
ATOM     16  C   UNL     1      44.680  38.280 183.392  0.00  0.00    +0.000 A 
ATOM     17  C   UNL     1      45.494  38.084 182.302  0.00  0.00    +0.000 A 
ENDBRANCH   1  15
BRANCH   6  18
ATOM     18  O   UNL     1      42.804  34.804 184.031  0.00  0.00    +0.000 OA
ATOM     19  H   UNL     1      42.438  34.178 184.720  0.00  0.00    +0.000 HD
ENDBRANCH   6  18
TORSDOF 2
ENDMDL
MODEL 6
REMARK VINA RESULT:    -6.885      1.509      1.874
REMARK INTER + INTRA:           9.038
REMARK INTER:                  -7.489
REMARK INTRA:                  16.527
REMARK UNBOUND:                16.527
REMARK  Name = 
REMARK  2 active torsions:
REMARK  status: ('A' for Active; 'I' for Inactive)
REMARK    1  A    between atoms: C_4  and  C_7
REMARK    2  A    between atoms: C_12  and  O_18
REMARK                            x       y       z     vdW  Elec       q    Type
REMARK                         _______ _______ _______ _____ _____    ______ ____
ROOT
ATOM      1  C   UNL     1      47.126  36.354 181.678  0.00  0.00    +0.000 A 
ATOM      2  C   UNL     1      47.562  36.712 183.003  0.00  0.00    +0.000 A 
ATOM      3  C   UNL     1      48.557  35.916 183.674  0.00  0.00    +0.000 A 
ATOM      4  O   UNL     1      48.941  36.233 184.844  0.00  0.00    +0.000 OA
ATOM      5  C   UNL     1      49.146  34.697 182.984  0.00  0.00    +0.000 A 
ATOM      6  C   UNL     1      49.284  33.515 183.693  0.00  0.00    +0.000 A 
ATOM      7  C   UNL     1      50.101  32.554 183.051  0.00  0.00    +0.000 A 
ATOM      8  C   UNL     1      50.419  32.576 181.770  0.00  0.00    +0.000 A 
ATOM      9  C   UNL     1      50.197  33.753 181.109  0.00  0.00    +0.000 A 
ATOM     10  C   UNL     1      49.521  34.785 181.713  0.00  0.00    +0.000 A 
ATOM     11  O   UNL     1      46.197  37.098 181.052  0.00  0.00    +0.000 OA
ENDROOT
BRANCH   1  15
ATOM     12  C   UNL     1      48.622  32.956 179.568  0.00  0.00    +0.000 A 
ATOM     13  C   UNL     1      49.070  34.215 179.203  0.00  0.00    +0.000 A 
ATOM     14  C   UNL     1      48.687  35.241 180.099  0.00  0.00    +0.000 A 
ATOM     15  C   UNL     1      47.716  35.135 180.988  0.00  0.00    +0.000 A 
ATOM     16  C   UNL     1      47.270  33.870 181.254  0.00  0.00    +0.000 A 
ATOM     17  C   UNL     1      47.698  32.799 180.508  0.00  0.00    +0.000 A 
ENDBRANCH   1  15
BRANCH   6  18
ATOM     18  O   UNL     1      48.662  33.288 184.950  0.00  0.00    +0.000 OA
ATOM     19  H   UNL     1      48.447  34.061 185.547  0.00  0.00    +0.000 HD
ENDBRANCH   6  18
TORSDOF 2
ENDMDL
