MODEL 1
REMARK VINA RESULT:    -7.092      0.000      0.000
REMARK INTER + INTRA:          -9.642
REMARK INTER:                  -9.024
REMARK INTRA:                  -0.619
REMARK UNBOUND:                -0.685
REMARK  Name = 
REMARK  6 active torsions:
REMARK  status: ('A' for Active; 'I' for Inactive)
REMARK    1  A    between atoms: C_1  and  O_2
REMARK    2  A    between atoms: O_2  and  C_3
REMARK    3  A    between atoms: C_6  and  C_7
REMARK    4  A    between atoms: C_7  and  C_9
REMARK    5  A    between atoms: C_10  and  C_11
REMARK    6  A    between atoms: C_17  and  O_18
REMARK                            x       y       z     vdW  Elec       q    Type
REMARK                         _______ _______ _______ _____ _____    ______ ____
ROOT
ATOM      1  C   UNL     1      43.467  37.114 187.332  0.00  0.00    +0.000 A 
ATOM      2  C   UNL     1      43.862  37.857 186.246  0.00  0.00    +0.000 A 
ATOM      3  C   UNL     1      44.414  37.234 185.144  0.00  0.00    +0.000 A 
ATOM      4  C   UNL     1      44.555  35.867 185.119  0.00  0.00    +0.000 A 
ATOM      5  C   UNL     1      44.134  35.109 186.189  0.00  0.00    +0.000 A 
ATOM      6  C   UNL     1      43.571  35.707 187.321  0.00  0.00    +0.000 A 
ENDROOT
BRANCH   1   8
ATOM      7  C   UNL     1      42.456  37.061 189.510  0.00  0.00    +0.000 C 
ATOM      8  O   UNL     1      42.958  37.780 188.393  0.00  0.00    +0.000 OA
ENDBRANCH   1   8
BRANCH   4   9
ATOM      9  C   UNL     1      45.175  35.191 183.906  0.00  0.00    +0.000 C 
ATOM     10  O   UNL     1      44.444  34.527 183.106  0.00  0.00    +0.000 OA
BRANCH   9  11
ATOM     11  C   UNL     1      46.668  35.310 183.651  0.00  0.00    +0.000 C 
ATOM     12  C   UNL     1      47.287  34.437 182.811  0.00  0.00    +0.000 C 
BRANCH  12  13
ATOM     13  C   UNL     1      48.781  34.557 182.556  0.00  0.00    +0.000 A 
ATOM     14  C   UNL     1      49.226  34.334 181.263  0.00  0.00    +0.000 A 
ATOM     15  C   UNL     1      50.630  34.190 181.158  0.00  0.00    +0.000 A 
ATOM     16  C   UNL     1      51.494  34.577 182.078  0.00  0.00    +0.000 A 
ATOM     17  C   UNL     1      50.982  34.848 183.317  0.00  0.00    +0.000 A 
ATOM     18  C   UNL     1      49.625  34.878 183.530  0.00  0.00    +0.000 A 
ENDBRANCH  12  13
ENDBRANCH   9  11
ENDBRANCH   4   9
BRANCH   5  19
ATOM     19  O   UNL     1      44.276  33.696 186.143  0.00  0.00    +0.000 OA
ATOM     20  H   UNL     1      44.287  33.223 185.262  0.00  0.00    +0.000 HD
ENDBRANCH   5  19
TORSDOF 5
ENDMDL
MODEL 2
REMARK VINA RESULT:    -7.039      3.233      7.832
REMARK INTER + INTRA:          -9.575
REMARK INTER:                  -9.140
REMARK INTRA:                  -0.435
REMARK UNBOUND:                -0.685
REMARK  Name = 
REMARK  6 active torsions:
REMARK  status: ('A' for Active; 'I' for Inactive)
REMARK    1  A    between atoms: C_1  and  O_2
REMARK    2  A    between atoms: O_2  and  C_3
REMARK    3  A    between atoms: C_6  and  C_7
REMARK    4  A    between atoms: C_7  and  C_9
REMARK    5  A    between atoms: C_10  and  C_11
REMARK    6  A    between atoms: C_17  and  O_18
REMARK                            x       y       z     vdW  Elec       q    Type
REMARK                         _______ _______ _______ _____ _____    ______ ____
ROOT
ATOM      1  C   UNL     1      50.567  31.117 182.599  0.00  0.00    +0.000 A 
ATOM      2  C   UNL     1      50.410  32.060 181.611  0.00  0.00    +0.000 A 
ATOM      3  C   UNL     1      49.796  33.265 181.894  0.00  0.00    +0.000 A 
ATOM      4  C   UNL     1      49.354  33.534 183.167  0.00  0.00    +0.000 A 
ATOM      5  C   UNL     1      49.532  32.609 184.172  0.00  0.00    +0.000 A 
ATOM      6  C   UNL     1      50.150  31.380 183.920  0.00  0.00    +0.000 A 
ENDROOT
BRANCH   1   8
ATOM      7  C   UNL     1      52.429  29.611 182.779  0.00  0.00    +0.000 C 
ATOM      8  O   UNL     1      51.151  29.947 182.257  0.00  0.00    +0.000 OA
ENDBRANCH   1   8
BRANCH   4   9
ATOM      9  C   UNL     1      48.668  34.857 183.467  0.00  0.00    +0.000 C 
ATOM     10  O   UNL     1      49.362  35.905 183.653  0.00  0.00    +0.000 OA
BRANCH   9  11
ATOM     11  C   UNL     1      47.152  34.927 183.542  0.00  0.00    +0.000 C 
ATOM     12  C   UNL     1      46.543  36.063 183.980  0.00  0.00    +0.000 C 
BRANCH  12  13
ATOM     13  C   UNL     1      45.027  36.131 184.055  0.00  0.00    +0.000 A 
ATOM     14  C   UNL     1      44.442  37.386 183.995  0.00  0.00    +0.000 A 
ATOM     15  C   UNL     1      43.071  37.397 184.345  0.00  0.00    +0.000 A 
ATOM     16  C   UNL     1      42.297  36.327 184.376  0.00  0.00    +0.000 A 
ATOM     17  C   UNL     1      42.933  35.116 184.364  0.00  0.00    +0.000 A 
ATOM     18  C   UNL     1      44.289  35.032 184.159  0.00  0.00    +0.000 A 
ENDBRANCH  12  13
ENDBRANCH   9  11
ENDBRANCH   4   9
BRANCH   5  19
ATOM     19  O   UNL     1      49.080  32.908 185.485  0.00  0.00    +0.000 OA
ATOM     20  H   UNL     1      49.202  33.827 185.858  0.00  0.00    +0.000 HD
ENDBRANCH   5  19
TORSDOF 5
ENDMDL
MODEL 3
REMARK VINA RESULT:    -6.966      4.489      7.204
REMARK INTER + INTRA:          -9.483
REMARK INTER:                  -8.761
REMARK INTRA:                  -0.722
REMARK UNBOUND:                -0.685
REMARK  Name = 
REMARK  6 active torsions:
REMARK  status: ('A' for Active; 'I' for Inactive)
REMARK    1  A    between atoms: C_1  and  O_2
REMARK    2  A    between atoms: O_2  and  C_3
REMARK    3  A    between atoms: C_6  and  C_7
REMARK    4  A    between atoms: C_7  and  C_9
REMARK    5  A    between atoms: C_10  and  C_11
REMARK    6  A    between atoms: C_17  and  O_18
REMARK                            x       y       z     vdW  Elec       q    Type
REMARK                         _______ _______ _______ _____ _____    ______ ____
ROOT
ATOM      1  C   UNL     1      50.690  31.469 182.780  0.00  0.00    +0.000 A 
ATOM      2  C   UNL     1      50.224  31.910 181.564  0.00  0.00    +0.000 A 
ATOM      3  C   UNL     1      49.242  32.881 181.509  0.00  0.00    +0.000 A 
ATOM      4  C   UNL     1      48.739  33.423 182.667  0.00  0.00    +0.000 A 
ATOM      5  C   UNL     1      49.219  33.010 183.890  0.00  0.00    +0.000 A 
ATOM      6  C   UNL     1      50.213  32.031 183.983  0.00  0.00    +0.000 A 
ENDROOT
BRANCH   1   8
ATOM      7  C   UNL     1      51.411  29.299 182.045  0.00  0.00    +0.000 C 
ATOM      8  O   UNL     1      51.632  30.499 182.772  0.00  0.00    +0.000 OA
ENDBRANCH   1   8
BRANCH   4   9
ATOM      9  C   UNL     1      47.650  34.481 182.597  0.00  0.00    +0.000 C 
ATOM     10  O   UNL     1      46.584  34.343 183.275  0.00  0.00    +0.000 OA
BRANCH   9  11
ATOM     11  C   UNL     1      47.838  35.706 181.717  0.00  0.00    +0.000 C 
ATOM     12  C   UNL     1      47.255  35.757 180.488  0.00  0.00    +0.000 C 
BRANCH  12  13
ATOM     13  C   UNL     1      47.442  36.982 179.609  0.00  0.00    +0.000 A 
ATOM     14  C   UNL     1      47.916  36.777 178.324  0.00  0.00    +0.000 A 
ATOM     15  C   UNL     1      48.325  37.963 177.667  0.00  0.00    +0.000 A 
ATOM     16  C   UNL     1      47.980  39.182 178.038  0.00  0.00    +0.000 A 
ATOM     17  C   UNL     1      47.454  39.309 179.295  0.00  0.00    +0.000 A 
ATOM     18  C   UNL     1      47.151  38.201 180.049  0.00  0.00    +0.000 A 
ENDBRANCH  12  13
ENDBRANCH   9  11
ENDBRANCH   4   9
BRANCH   5  19
ATOM     19  O   UNL     1      48.697  33.589 185.078  0.00  0.00    +0.000 OA
ATOM     20  H   UNL     1      48.276  34.496 185.049  0.00  0.00    +0.000 HD
ENDBRANCH   5  19
TORSDOF 5
ENDMDL
MODEL 4
REMARK VINA RESULT:    -6.932      3.420      4.450
REMARK INTER + INTRA:          -9.440
REMARK INTER:                  -8.779
REMARK INTRA:                  -0.661
REMARK UNBOUND:                -0.685
REMARK  Name = 
REMARK  6 active torsions:
REMARK  status: ('A' for Active; 'I' for Inactive)
REMARK    1  A    between atoms: C_1  and  O_2
REMARK    2  A    between atoms: O_2  and  C_3
REMARK    3  A    between atoms: C_6  and  C_7
REMARK    4  A    between atoms: C_7  and  C_9
REMARK    5  A    between atoms: C_10  and  C_11
REMARK    6  A    between atoms: C_17  and  O_18
REMARK                            x       y       z     vdW  Elec       q    Type
REMARK                         _______ _______ _______ _____ _____    ______ ____
ROOT
ATOM      1  C   UNL     1      43.244  36.729 187.758  0.00  0.00    +0.000 A 
ATOM      2  C   UNL     1      43.452  37.854 186.995  0.00  0.00    +0.000 A 
ATOM      3  C   UNL     1      44.225  37.782 185.852  0.00  0.00    +0.000 A 
ATOM      4  C   UNL     1      44.774  36.585 185.461  0.00  0.00    +0.000 A 
ATOM      5  C   UNL     1      44.547  35.445 186.200  0.00  0.00    +0.000 A 
ATOM      6  C   UNL     1      43.770  35.481 187.363  0.00  0.00    +0.000 A 
ENDROOT
BRANCH   1   8
ATOM      7  C   UNL     1      42.401  38.131 189.516  0.00  0.00    +0.000 C 
ATOM      8  O   UNL     1      42.502  36.865 188.880  0.00  0.00    +0.000 OA
ENDBRANCH   1   8
BRANCH   4   9
ATOM      9  C   UNL     1      45.632  36.518 184.208  0.00  0.00    +0.000 C 
ATOM     10  O   UNL     1      46.665  35.779 184.183  0.00  0.00    +0.000 OA
BRANCH   9  11
ATOM     11  C   UNL     1      45.252  37.335 182.983  0.00  0.00    +0.000 C 
ATOM     12  C   UNL     1      46.222  37.828 182.166  0.00  0.00    +0.000 C 
BRANCH  12  13
ATOM     13  C   UNL     1      45.841  38.644 180.942  0.00  0.00    +0.000 A 
ATOM     14  C   UNL     1      45.323  39.911 181.157  0.00  0.00    +0.000 A 
ATOM     15  C   UNL     1      44.741  40.495 180.007  0.00  0.00    +0.000 A 
ATOM     16  C   UNL     1      44.960  40.091 178.769  0.00  0.00    +0.000 A 
ATOM     17  C   UNL     1      45.537  38.859 178.624  0.00  0.00    +0.000 A 
ATOM     18  C   UNL     1      46.011  38.169 179.714  0.00  0.00    +0.000 A 
ENDBRANCH  12  13
ENDBRANCH   9  11
ENDBRANCH   4   9
BRANCH   5  19
ATOM     19  O   UNL     1      45.111  34.213 185.776  0.00  0.00    +0.000 OA
ATOM     20  H   UNL     1      44.635  33.354 185.963  0.00  0.00    +0.000 HD
ENDBRANCH   5  19
TORSDOF 5
ENDMDL
MODEL 5
REMARK VINA RESULT:    -6.854      2.314      2.898
REMARK INTER + INTRA:          -9.342
REMARK INTER:                  -8.619
REMARK INTRA:                  -0.724
REMARK UNBOUND:                -0.685
REMARK  Name = 
REMARK  6 active torsions:
REMARK  status: ('A' for Active; 'I' for Inactive)
REMARK    1  A    between atoms: C_1  and  O_2
REMARK    2  A    between atoms: O_2  and  C_3
REMARK    3  A    between atoms: C_6  and  C_7
REMARK    4  A    between atoms: C_7  and  C_9
REMARK    5  A    between atoms: C_10  and  C_11
REMARK    6  A    between atoms: C_17  and  O_18
REMARK                            x       y       z     vdW  Elec       q    Type
REMARK                         _______ _______ _______ _____ _____    ______ ____
ROOT
ATOM      1  C   UNL     1      44.372  37.418 185.975  0.00  0.00    +0.000 A 
ATOM      2  C   UNL     1      44.497  36.100 185.605  0.00  0.00    +0.000 A 
ATOM      3  C   UNL     1      45.357  35.747 184.583  0.00  0.00    +0.000 A 
ATOM      4  C   UNL     1      46.105  36.706 183.944  0.00  0.00    +0.000 A 
ATOM      5  C   UNL     1      46.011  38.026 184.327  0.00  0.00    +0.000 A 
ATOM      6  C   UNL     1      45.150  38.419 185.357  0.00  0.00    +0.000 A 
ENDROOT
BRANCH   1   8
ATOM      7  C   UNL     1      43.045  36.683 187.838  0.00  0.00    +0.000 C 
ATOM      8  O   UNL     1      43.495  37.708 186.963  0.00  0.00    +0.000 OA
ENDBRANCH   1   8
BRANCH   4   9
ATOM      9  C   UNL     1      47.041  36.309 182.814  0.00  0.00    +0.000 C 
ATOM     10  O   UNL     1      46.937  36.867 181.677  0.00  0.00    +0.000 OA
BRANCH   9  11
ATOM     11  C   UNL     1      48.101  35.244 183.044  0.00  0.00    +0.000 C 
ATOM     12  C   UNL     1      48.047  34.070 182.359  0.00  0.00    +0.000 C 
BRANCH  12  13
ATOM     13  C   UNL     1      49.108  33.006 182.590  0.00  0.00    +0.000 A 
ATOM     14  C   UNL     1      49.827  32.575 181.487  0.00  0.00    +0.000 A 
ATOM     15  C   UNL     1      50.590  31.406 181.722  0.00  0.00    +0.000 A 
ATOM     16  C   UNL     1      50.909  30.948 182.919  0.00  0.00    +0.000 A 
ATOM     17  C   UNL     1      50.209  31.463 183.975  0.00  0.00    +0.000 A 
ATOM     18  C   UNL     1      49.346  32.519 183.802  0.00  0.00    +0.000 A 
ENDBRANCH  12  13
ENDBRANCH   9  11
ENDBRANCH   4   9
BRANCH   5  19
ATOM     19  O   UNL     1      46.800  39.003 183.665  0.00  0.00    +0.000 OA
ATOM     20  H   UNL     1      47.176  38.812 182.758  0.00  0.00    +0.000 HD
ENDBRANCH   5  19
TORSDOF 5
ENDMDL
MODEL 6
REMARK VINA RESULT:    -6.849      1.849      2.011
REMARK INTER + INTRA:          -9.336
REMARK INTER:                  -8.881
REMARK INTRA:                  -0.455
REMARK UNBOUND:                -0.685
REMARK  Name = 
REMARK  6 active torsions:
REMARK  status: ('A' for Active; 'I' for Inactive)
REMARK    1  A    between atoms: C_1  and  O_2
REMARK    2  A    between atoms: O_2  and  C_3
REMARK    3  A    between atoms: C_6  and  C_7
REMARK    4  A    between atoms: C_7  and  C_9
REMARK    5  A    between atoms: C_10  and  C_11
REMARK    6  A    between atoms: C_17  and  O_18
REMARK                            x       y       z     vdW  Elec       q    Type
REMARK                         _______ _______ _______ _____ _____    ______ ____
ROOT
ATOM      1  C   UNL     1      43.538  36.446 186.294  0.00  0.00    +0.000 A 
ATOM      2  C   UNL     1      44.445  37.410 185.921  0.00  0.00    +0.000 A 
ATOM      3  C   UNL     1      45.323  37.169 184.882  0.00  0.00    +0.000 A 
ATOM      4  C   UNL     1      45.284  35.974 184.205  0.00  0.00    +0.000 A 
ATOM      5  C   UNL     1      44.359  35.013 184.550  0.00  0.00    +0.000 A 
ATOM      6  C   UNL     1      43.455  35.223 185.596  0.00  0.00    +0.000 A 
ENDROOT
BRANCH   1   8
ATOM      7  C   UNL     1      43.223  36.682 188.664  0.00  0.00    +0.000 C 
ATOM      8  O   UNL     1      42.722  36.727 187.335  0.00  0.00    +0.000 OA
ENDBRANCH   1   8
BRANCH   4   9
ATOM      9  C   UNL     1      46.261  35.713 183.070  0.00  0.00    +0.000 C 
ATOM     10  O   UNL     1      46.091  36.273 181.942  0.00  0.00    +0.000 OA
BRANCH   9  11
ATOM     11  C   UNL     1      47.445  34.784 183.286  0.00  0.00    +0.000 C 
ATOM     12  C   UNL     1      47.712  33.801 182.384  0.00  0.00    +0.000 C 
BRANCH  12  13
ATOM     13  C   UNL     1      48.895  32.872 182.601  0.00  0.00    +0.000 A 
ATOM     14  C   UNL     1      49.643  32.523 181.488  0.00  0.00    +0.000 A 
ATOM     15  C   UNL     1      50.543  31.454 181.714  0.00  0.00    +0.000 A 
ATOM     16  C   UNL     1      50.934  31.044 182.906  0.00  0.00    +0.000 A 
ATOM     17  C   UNL     1      50.194  31.478 183.972  0.00  0.00    +0.000 A 
ATOM     18  C   UNL     1      49.209  32.423 183.810  0.00  0.00    +0.000 A 
ENDBRANCH  12  13
ENDBRANCH   9  11
ENDBRANCH   4   9
BRANCH   5  19
ATOM     19  O   UNL     1      44.323  33.788 183.832  0.00  0.00    +0.000 OA
ATOM     20  H   UNL     1      44.573  33.768 182.864  0.00  0.00    +0.000 HD
ENDBRANCH   5  19
TORSDOF 5
ENDMDL
MODEL 7
REMARK VINA RESULT:    -6.832      3.583      7.891
REMARK INTER + INTRA:          -9.315
REMARK INTER:                  -8.618
REMARK INTRA:                  -0.696
REMARK UNBOUND:                -0.685
REMARK  Name = 
REMARK  6 active torsions:
REMARK  status: ('A' for Active; 'I' for Inactive)
REMARK    1  A    between atoms: C_1  and  O_2
REMARK    2  A    between atoms: O_2  and  C_3
REMARK    3  A    between atoms: C_6  and  C_7
REMARK    4  A    between atoms: C_7  and  C_9
REMARK    5  A    between atoms: C_10  and  C_11
REMARK    6  A    between atoms: C_17  and  O_18
REMARK                            x       y       z     vdW  Elec       q    Type
REMARK                         _______ _______ _______ _____ _____    ______ ____
ROOT
ATOM      1  C   UNL     1      50.568  31.108 183.130  0.00  0.00    +0.000 A 
ATOM      2  C   UNL     1      49.890  31.824 184.087  0.00  0.00    +0.000 A 
ATOM      3  C   UNL     1      49.128  32.918 183.724  0.00  0.00    +0.000 A 
ATOM      4  C   UNL     1      49.030  33.286 182.403  0.00  0.00    +0.000 A 
ATOM      5  C   UNL     1      49.681  32.558 181.432  0.00  0.00    +0.000 A 
ATOM      6  C   UNL     1      50.461  31.445 181.764  0.00  0.00    +0.000 A 
ENDROOT
BRANCH   1   8
ATOM      7  C   UNL     1      52.461  29.666 182.802  0.00  0.00    +0.000 C 
ATOM      8  O   UNL     1      51.319  30.064 183.547  0.00  0.00    +0.000 OA
ENDBRANCH   1   8
BRANCH   4   9
ATOM      9  C   UNL     1      48.199  34.498 182.014  0.00  0.00    +0.000 C 
ATOM     10  O   UNL     1      48.668  35.356 181.202  0.00  0.00    +0.000 OA
BRANCH   9  11
ATOM     11  C   UNL     1      46.807  34.683 182.596  0.00  0.00    +0.000 C 
ATOM     12  C   UNL     1      46.417  35.904 183.053  0.00  0.00    +0.000 C 
BRANCH  12  13
ATOM     13  C   UNL     1      45.024  36.087 183.634  0.00  0.00    +0.000 A 
ATOM     14  C   UNL     1      44.318  34.944 183.968  0.00  0.00    +0.000 A 
ATOM     15  C   UNL     1      42.947  35.175 184.237  0.00  0.00    +0.000 A 
ATOM     16  C   UNL     1      42.427  36.356 184.513  0.00  0.00    +0.000 A 
ATOM     17  C   UNL     1      43.202  37.445 184.222  0.00  0.00    +0.000 A 
ATOM     18  C   UNL     1      44.510  37.296 183.827  0.00  0.00    +0.000 A 
ENDBRANCH  12  13
ENDBRANCH   9  11
ENDBRANCH   4   9
BRANCH   5  19
ATOM     19  O   UNL     1      49.560  32.944 180.070  0.00  0.00    +0.000 OA
ATOM     20  H   UNL     1      50.371  33.221 179.555  0.00  0.00    +0.000 HD
ENDBRANCH   5  19
TORSDOF 5
ENDMDL
MODEL 8
REMARK VINA RESULT:    -6.650      2.654      7.569
REMARK INTER + INTRA:          -9.084
REMARK INTER:                  -8.559
REMARK INTRA:                  -0.525
REMARK UNBOUND:                -0.685
REMARK  Name = 
REMARK  6 active torsions:
REMARK  status: ('A' for Active; 'I' for Inactive)
REMARK    1  A    between atoms: C_1  and  O_2
REMARK    2  A    between atoms: O_2  and  C_3
REMARK    3  A    between atoms: C_6  and  C_7
REMARK    4  A    between atoms: C_7  and  C_9
REMARK    5  A    between atoms: C_10  and  C_11
REMARK    6  A    between atoms: C_17  and  O_18
REMARK                            x       y       z     vdW  Elec       q    Type
REMARK                         _______ _______ _______ _____ _____    ______ ____
ROOT
ATOM      1  C   UNL     1      50.390  32.725 182.760  0.00  0.00    +0.000 A 
ATOM      2  C   UNL     1      49.318  32.538 181.920  0.00  0.00    +0.000 A 
ATOM      3  C   UNL     1      48.300  33.471 181.878  0.00  0.00    +0.000 A 
ATOM      4  C   UNL     1      48.361  34.599 182.661  0.00  0.00    +0.000 A 
ATOM      5  C   UNL     1      49.445  34.812 183.484  0.00  0.00    +0.000 A 
ATOM      6  C   UNL     1      50.493  33.888 183.551  0.00  0.00    +0.000 A 
ENDROOT
BRANCH   1   8
ATOM      7  C   UNL     1      50.979  30.400 182.630  0.00  0.00    +0.000 C 
ATOM      8  O   UNL     1      51.343  31.766 182.778  0.00  0.00    +0.000 OA
ENDBRANCH   1   8
BRANCH   4   9
ATOM      9  C   UNL     1      47.231  35.614 182.617  0.00  0.00    +0.000 C 
ATOM     10  O   UNL     1      47.190  36.481 181.689  0.00  0.00    +0.000 OA
BRANCH   9  11
ATOM     11  C   UNL     1      46.148  35.592 183.683  0.00  0.00    +0.000 C 
ATOM     12  C   UNL     1      45.997  36.652 184.523  0.00  0.00    +0.000 C 
BRANCH  12  13
ATOM     13  C   UNL     1      44.914  36.629 185.589  0.00  0.00    +0.000 A 
ATOM     14  C   UNL     1      44.201  37.798 185.797  0.00  0.00    +0.000 A 
ATOM     15  C   UNL     1      43.413  37.787 186.974  0.00  0.00    +0.000 A 
ATOM     16  C   UNL     1      43.071  36.697 187.636  0.00  0.00    +0.000 A 
ATOM     17  C   UNL     1      43.768  35.559 187.336  0.00  0.00    +0.000 A 
ATOM     18  C   UNL     1      44.652  35.528 186.285  0.00  0.00    +0.000 A 
ENDBRANCH  12  13
ENDBRANCH   9  11
ENDBRANCH   4   9
BRANCH   5  19
ATOM     19  O   UNL     1      49.499  35.989 184.278  0.00  0.00    +0.000 OA
ATOM     20  H   UNL     1      48.784  36.170 184.952  0.00  0.00    +0.000 HD
ENDBRANCH   5  19
TORSDOF 5
ENDMDL
MODEL 9
REMARK VINA RESULT:    -6.629      1.415      2.223
REMARK INTER + INTRA:          -9.058
REMARK INTER:                  -8.373
REMARK INTRA:                  -0.685
REMARK UNBOUND:                -0.685
REMARK  Name = 
REMARK  6 active torsions:
REMARK  status: ('A' for Active; 'I' for Inactive)
REMARK    1  A    between atoms: C_1  and  O_2
REMARK    2  A    between atoms: O_2  and  C_3
REMARK    3  A    between atoms: C_6  and  C_7
REMARK    4  A    between atoms: C_7  and  C_9
REMARK    5  A    between atoms: C_10  and  C_11
REMARK    6  A    between atoms: C_17  and  O_18
REMARK                            x       y       z     vdW  Elec       q    Type
REMARK                         _______ _______ _______ _____ _____    ______ ____
ROOT
ATOM      1  C   UNL     1      43.349  36.737 187.648  0.00  0.00    +0.000 A 
ATOM      2  C   UNL     1      43.939  35.599 187.153  0.00  0.00    +0.000 A 
ATOM      3  C   UNL     1      44.623  35.639 185.953  0.00  0.00    +0.000 A 
ATOM      4  C   UNL     1      44.732  36.818 185.257  0.00  0.00    +0.000 A 
ATOM      5  C   UNL     1      44.170  37.972 185.758  0.00  0.00    +0.000 A 
ATOM      6  C   UNL     1      43.471  37.968 186.970  0.00  0.00    +0.000 A 
ENDROOT
BRANCH   1   8
ATOM      7  C   UNL     1      42.339  37.800 189.551  0.00  0.00    +0.000 C 
ATOM      8  O   UNL     1      42.670  36.632 188.813  0.00  0.00    +0.000 OA
ENDBRANCH   1   8
BRANCH   4   9
ATOM      9  C   UNL     1      45.476  36.850 183.932  0.00  0.00    +0.000 C 
ATOM     10  O   UNL     1      44.940  37.390 182.915  0.00  0.00    +0.000 OA
BRANCH   9  11
ATOM     11  C   UNL     1      46.862  36.236 183.825  0.00  0.00    +0.000 C 
ATOM     12  C   UNL     1      47.307  35.763 182.629  0.00  0.00    +0.000 C 
BRANCH  12  13
ATOM     13  C   UNL     1      48.693  35.150 182.523  0.00  0.00    +0.000 A 
ATOM     14  C   UNL     1      49.396  34.955 183.701  0.00  0.00    +0.000 A 
ATOM     15  C   UNL     1      50.763  34.645 183.509  0.00  0.00    +0.000 A 
ATOM     16  C   UNL     1      51.282  34.217 182.372  0.00  0.00    +0.000 A 
ATOM     17  C   UNL     1      50.511  34.376 181.254  0.00  0.00    +0.000 A 
ATOM     18  C   UNL     1      49.207  34.801 181.349  0.00  0.00    +0.000 A 
ENDBRANCH  12  13
ENDBRANCH   9  11
ENDBRANCH   4   9
BRANCH   5  19
ATOM     19  O   UNL     1      44.302  39.186 185.032  0.00  0.00    +0.000 OA
ATOM     20  H   UNL     1      44.814  39.950 185.424  0.00  0.00    +0.000 HD
ENDBRANCH   5  19
TORSDOF 5
ENDMDL
