MODEL 1
REMARK VINA RESULT:    -7.226      0.000      0.000
REMARK INTER + INTRA:          -9.889
REMARK INTER:                  -9.297
REMARK INTRA:                  -0.592
REMARK UNBOUND:                -0.129
REMARK  Name = 
REMARK  9 active torsions:
REMARK  status: ('A' for Active; 'I' for Inactive)
REMARK    1  A    between atoms: C_1  and  O_2
REMARK    2  A    between atoms: O_2  and  C_3
REMARK    3  A    between atoms: C_6  and  C_7
REMARK    4  A    between atoms: C_7  and  C_9
REMARK    5  A    between atoms: C_10  and  C_11
REMARK    6  A    between atoms: C_17  and  O_18
REMARK    7  A    between atoms: O_18  and  C_19
REMARK    8  A    between atoms: C_20  and  O_21
REMARK    9  A    between atoms: O_21  and  C_22
REMARK                            x       y       z     vdW  Elec       q    Type
REMARK                         _______ _______ _______ _____ _____    ______ ____
ROOT
ATOM      1  C   UNL     1      50.339  31.931 182.439  0.00  0.00    +0.000 A 
ATOM      2  C   UNL     1      50.138  31.822 181.071  0.00  0.00    +0.000 A 
ATOM      3  C   UNL     1      49.258  32.796 180.542  0.00  0.00    +0.000 A 
ATOM      4  C   UNL     1      48.413  33.512 181.262  0.00  0.00    +0.000 A 
ATOM      5  C   UNL     1      48.624  33.524 182.613  0.00  0.00    +0.000 A 
ATOM      6  C   UNL     1      49.557  32.697 183.190  0.00  0.00    +0.000 A 
ENDROOT
BRANCH   1   8
ATOM      7  C   UNL     1      51.220  29.729 183.087  0.00  0.00    +0.000 C 
ATOM      8  O   UNL     1      51.278  31.146 183.159  0.00  0.00    +0.000 OA
ENDBRANCH   1   8
BRANCH   4   9
ATOM      9  C   UNL     1      47.269  34.282 180.622  0.00  0.00    +0.000 C 
ATOM     10  O   UNL     1      46.080  33.842 180.709  0.00  0.00    +0.000 OA
BRANCH   9  11
ATOM     11  C   UNL     1      47.549  35.578 179.879  0.00  0.00    +0.000 C 
ATOM     12  C   UNL     1      47.113  36.762 180.388  0.00  0.00    +0.000 C 
BRANCH  12  13
ATOM     13  C   UNL     1      47.392  38.058 179.643  0.00  0.00    +0.000 A 
ATOM     14  C   UNL     1      47.830  38.004 178.330  0.00  0.00    +0.000 A 
ATOM     15  C   UNL     1      48.331  39.234 177.842  0.00  0.00    +0.000 A 
ATOM     16  C   UNL     1      48.097  40.410 178.395  0.00  0.00    +0.000 A 
ATOM     17  C   UNL     1      47.601  40.395 179.669  0.00  0.00    +0.000 A 
ATOM     18  C   UNL     1      47.211  39.218 180.262  0.00  0.00    +0.000 A 
ENDBRANCH  12  13
ENDBRANCH   9  11
ENDBRANCH   4   9
BRANCH   5  19
ATOM     19  O   UNL     1      47.867  34.403 183.432  0.00  0.00    +0.000 OA
ATOM     20  C   UNL     1      48.319  35.730 183.656  0.00  0.00    +0.000 C 
ENDBRANCH   5  19
BRANCH   6  21
ATOM     21  O   UNL     1      49.688  32.661 184.604  0.00  0.00    +0.000 OA
ATOM     22  C   UNL     1      50.583  33.548 185.257  0.00  0.00    +0.000 C 
ENDBRANCH   6  21
TORSDOF 6
ENDMDL
MODEL 2
REMARK VINA RESULT:    -7.209      3.606      7.059
REMARK INTER + INTRA:          -9.866
REMARK INTER:                  -9.108
REMARK INTRA:                  -0.758
REMARK UNBOUND:                -0.129
REMARK  Name = 
REMARK  9 active torsions:
REMARK  status: ('A' for Active; 'I' for Inactive)
REMARK    1  A    between atoms: C_1  and  O_2
REMARK    2  A    between atoms: O_2  and  C_3
REMARK    3  A    between atoms: C_6  and  C_7
REMARK    4  A    between atoms: C_7  and  C_9
REMARK    5  A    between atoms: C_10  and  C_11
REMARK    6  A    between atoms: C_17  and  O_18
REMARK    7  A    between atoms: O_18  and  C_19
REMARK    8  A    between atoms: C_20  and  O_21
REMARK    9  A    between atoms: O_21  and  C_22
REMARK                            x       y       z     vdW  Elec       q    Type
REMARK                         _______ _______ _______ _____ _____    ______ ____
ROOT
ATOM      1  C   UNL     1      44.083  36.204 185.342  0.00  0.00    +0.000 A 
ATOM      2  C   UNL     1      43.788  35.111 184.542  0.00  0.00    +0.000 A 
ATOM      3  C   UNL     1      44.772  34.836 183.563  0.00  0.00    +0.000 A 
ATOM      4  C   UNL     1      45.695  35.693 183.167  0.00  0.00    +0.000 A 
ATOM      5  C   UNL     1      45.892  36.787 183.964  0.00  0.00    +0.000 A 
ATOM      6  C   UNL     1      45.052  37.053 185.019  0.00  0.00    +0.000 A 
ENDROOT
BRANCH   1   8
ATOM      7  C   UNL     1      43.524  35.961 187.724  0.00  0.00    +0.000 C 
ATOM      8  O   UNL     1      43.306  36.585 186.468  0.00  0.00    +0.000 OA
ENDBRANCH   1   8
BRANCH   4   9
ATOM      9  C   UNL     1      46.497  35.476 181.894  0.00  0.00    +0.000 C 
ATOM     10  O   UNL     1      46.339  36.255 180.902  0.00  0.00    +0.000 OA
BRANCH   9  11
ATOM     11  C   UNL     1      47.487  34.326 181.807  0.00  0.00    +0.000 C 
ATOM     12  C   UNL     1      48.307  34.052 182.859  0.00  0.00    +0.000 C 
BRANCH  12  13
ATOM     13  C   UNL     1      49.297  32.902 182.771  0.00  0.00    +0.000 A 
ATOM     14  C   UNL     1      49.836  32.565 181.541  0.00  0.00    +0.000 A 
ATOM     15  C   UNL     1      50.504  31.317 181.530  0.00  0.00    +0.000 A 
ATOM     16  C   UNL     1      50.915  30.679 182.611  0.00  0.00    +0.000 A 
ATOM     17  C   UNL     1      50.398  31.104 183.802  0.00  0.00    +0.000 A 
ATOM     18  C   UNL     1      49.628  32.241 183.874  0.00  0.00    +0.000 A 
ENDBRANCH  12  13
ENDBRANCH   9  11
ENDBRANCH   4   9
BRANCH   5  19
ATOM     19  O   UNL     1      46.978  37.661 183.698  0.00  0.00    +0.000 OA
ATOM     20  C   UNL     1      48.207  37.498 184.391  0.00  0.00    +0.000 C 
ENDBRANCH   5  19
BRANCH   6  21
ATOM     21  O   UNL     1      45.221  38.245 185.770  0.00  0.00    +0.000 OA
ATOM     22  C   UNL     1      44.633  39.457 185.321  0.00  0.00    +0.000 C 
ENDBRANCH   6  21
TORSDOF 6
ENDMDL
MODEL 3
REMARK VINA RESULT:    -7.131      4.282      6.463
REMARK INTER + INTRA:          -9.761
REMARK INTER:                  -9.177
REMARK INTRA:                  -0.584
REMARK UNBOUND:                -0.129
REMARK  Name = 
REMARK  9 active torsions:
REMARK  status: ('A' for Active; 'I' for Inactive)
REMARK    1  A    between atoms: C_1  and  O_2
REMARK    2  A    between atoms: O_2  and  C_3
REMARK    3  A    between atoms: C_6  and  C_7
REMARK    4  A    between atoms: C_7  and  C_9
REMARK    5  A    between atoms: C_10  and  C_11
REMARK    6  A    between atoms: C_17  and  O_18
REMARK    7  A    between atoms: O_18  and  C_19
REMARK    8  A    between atoms: C_20  and  O_21
REMARK    9  A    between atoms: O_21  and  C_22
REMARK                            x       y       z     vdW  Elec       q    Type
REMARK                         _______ _______ _______ _____ _____    ______ ____
ROOT
ATOM      1  C   UNL     1      43.655  36.922 186.750  0.00  0.00    +0.000 A 
ATOM      2  C   UNL     1      43.783  38.282 186.514  0.00  0.00    +0.000 A 
ATOM      3  C   UNL     1      44.508  38.593 185.339  0.00  0.00    +0.000 A 
ATOM      4  C   UNL     1      45.304  37.752 184.705  0.00  0.00    +0.000 A 
ATOM      5  C   UNL     1      45.176  36.430 185.031  0.00  0.00    +0.000 A 
ATOM      6  C   UNL     1      44.384  36.035 186.083  0.00  0.00    +0.000 A 
ENDROOT
BRANCH   1   8
ATOM      7  C   UNL     1      42.674  37.111 188.997  0.00  0.00    +0.000 C 
ATOM      8  O   UNL     1      42.862  36.379 187.795  0.00  0.00    +0.000 OA
ENDBRANCH   1   8
BRANCH   4   9
ATOM      9  C   UNL     1      46.307  38.227 183.666  0.00  0.00    +0.000 C 
ATOM     10  O   UNL     1      47.539  38.315 183.966  0.00  0.00    +0.000 OA
BRANCH   9  11
ATOM     11  C   UNL     1      45.836  38.596 182.269  0.00  0.00    +0.000 C 
ATOM     12  C   UNL     1      46.373  37.976 181.183  0.00  0.00    +0.000 C 
BRANCH  12  13
ATOM     13  C   UNL     1      45.902  38.347 179.786  0.00  0.00    +0.000 A 
ATOM     14  C   UNL     1      45.425  39.626 179.549  0.00  0.00    +0.000 A 
ATOM     15  C   UNL     1      44.752  39.766 178.312  0.00  0.00    +0.000 A 
ATOM     16  C   UNL     1      44.853  38.918 177.304  0.00  0.00    +0.000 A 
ATOM     17  C   UNL     1      45.396  37.697 177.589  0.00  0.00    +0.000 A 
ATOM     18  C   UNL     1      45.955  37.440 178.818  0.00  0.00    +0.000 A 
ENDBRANCH  12  13
ENDBRANCH   9  11
ENDBRANCH   4   9
BRANCH   5  19
ATOM     19  O   UNL     1      45.871  35.451 184.274  0.00  0.00    +0.000 OA
ATOM     20  C   UNL     1      45.295  34.933 183.084  0.00  0.00    +0.000 C 
ENDBRANCH   5  19
BRANCH   6  21
ATOM     21  O   UNL     1      44.346  34.667 186.460  0.00  0.00    +0.000 OA
ATOM     22  C   UNL     1      43.399  33.793 185.864  0.00  0.00    +0.000 C 
ENDBRANCH   6  21
TORSDOF 6
ENDMDL
MODEL 4
REMARK VINA RESULT:    -7.038      3.391      5.694
REMARK INTER + INTRA:          -9.636
REMARK INTER:                  -8.918
REMARK INTRA:                  -0.718
REMARK UNBOUND:                -0.129
REMARK  Name = 
REMARK  9 active torsions:
REMARK  status: ('A' for Active; 'I' for Inactive)
REMARK    1  A    between atoms: C_1  and  O_2
REMARK    2  A    between atoms: O_2  and  C_3
REMARK    3  A    between atoms: C_6  and  C_7
REMARK    4  A    between atoms: C_7  and  C_9
REMARK    5  A    between atoms: C_10  and  C_11
REMARK    6  A    between atoms: C_17  and  O_18
REMARK    7  A    between atoms: O_18  and  C_19
REMARK    8  A    between atoms: C_20  and  O_21
REMARK    9  A    between atoms: O_21  and  C_22
REMARK                            x       y       z     vdW  Elec       q    Type
REMARK                         _______ _______ _______ _____ _____    ______ ____
ROOT
ATOM      1  C   UNL     1      49.771  33.497 182.649  0.00  0.00    +0.000 A 
ATOM      2  C   UNL     1      50.017  34.573 183.488  0.00  0.00    +0.000 A 
ATOM      3  C   UNL     1      48.942  35.489 183.573  0.00  0.00    +0.000 A 
ATOM      4  C   UNL     1      47.949  35.564 182.705  0.00  0.00    +0.000 A 
ATOM      5  C   UNL     1      47.801  34.500 181.859  0.00  0.00    +0.000 A 
ATOM      6  C   UNL     1      48.742  33.499 181.810  0.00  0.00    +0.000 A 
ENDROOT
BRANCH   1   8
ATOM      7  C   UNL     1      50.657  31.363 183.487  0.00  0.00    +0.000 C 
ATOM      8  O   UNL     1      50.653  32.393 182.511  0.00  0.00    +0.000 OA
ENDBRANCH   1   8
BRANCH   4   9
ATOM      9  C   UNL     1      47.021  36.766 182.651  0.00  0.00    +0.000 C 
ATOM     10  O   UNL     1      47.024  37.526 181.631  0.00  0.00    +0.000 OA
BRANCH   9  11
ATOM     11  C   UNL     1      46.090  37.060 183.815  0.00  0.00    +0.000 C 
ATOM     12  C   UNL     1      45.561  36.036 184.539  0.00  0.00    +0.000 C 
BRANCH  12  13
ATOM     13  C   UNL     1      44.629  36.331 185.704  0.00  0.00    +0.000 A 
ATOM     14  C   UNL     1      44.024  37.574 185.789  0.00  0.00    +0.000 A 
ATOM     15  C   UNL     1      43.424  37.835 187.044  0.00  0.00    +0.000 A 
ATOM     16  C   UNL     1      43.124  36.909 187.937  0.00  0.00    +0.000 A 
ATOM     17  C   UNL     1      43.700  35.682 187.758  0.00  0.00    +0.000 A 
ATOM     18  C   UNL     1      44.411  35.394 186.618  0.00  0.00    +0.000 A 
ENDBRANCH  12  13
ENDBRANCH   9  11
ENDBRANCH   4   9
BRANCH   5  19
ATOM     19  O   UNL     1      46.660  34.428 181.017  0.00  0.00    +0.000 OA
ATOM     20  C   UNL     1      45.471  33.808 181.484  0.00  0.00    +0.000 C 
ENDBRANCH   5  19
BRANCH   6  21
ATOM     21  O   UNL     1      48.611  32.457 180.855  0.00  0.00    +0.000 OA
ATOM     22  C   UNL     1      49.016  32.671 179.511  0.00  0.00    +0.000 C 
ENDBRANCH   6  21
TORSDOF 6
ENDMDL
MODEL 5
REMARK VINA RESULT:    -6.752      2.824      7.332
REMARK INTER + INTRA:          -9.249
REMARK INTER:                  -8.918
REMARK INTRA:                  -0.331
REMARK UNBOUND:                -0.129
REMARK  Name = 
REMARK  9 active torsions:
REMARK  status: ('A' for Active; 'I' for Inactive)
REMARK    1  A    between atoms: C_1  and  O_2
REMARK    2  A    between atoms: O_2  and  C_3
REMARK    3  A    between atoms: C_6  and  C_7
REMARK    4  A    between atoms: C_7  and  C_9
REMARK    5  A    between atoms: C_10  and  C_11
REMARK    6  A    between atoms: C_17  and  O_18
REMARK    7  A    between atoms: O_18  and  C_19
REMARK    8  A    between atoms: C_20  and  O_21
REMARK    9  A    between atoms: O_21  and  C_22
REMARK                            x       y       z     vdW  Elec       q    Type
REMARK                         _______ _______ _______ _____ _____    ______ ____
ROOT
ATOM      1  C   UNL     1      45.649  39.318 182.651  0.00  0.00    +0.000 A 
ATOM      2  C   UNL     1      46.492  39.528 181.571  0.00  0.00    +0.000 A 
ATOM      3  C   UNL     1      46.779  38.356 180.833  0.00  0.00    +0.000 A 
ATOM      4  C   UNL     1      46.600  37.126 181.280  0.00  0.00    +0.000 A 
ATOM      5  C   UNL     1      45.813  36.992 182.391  0.00  0.00    +0.000 A 
ATOM      6  C   UNL     1      45.384  38.093 183.090  0.00  0.00    +0.000 A 
ENDROOT
BRANCH   1   8
ATOM      7  C   UNL     1      44.404  41.429 182.847  0.00  0.00    +0.000 C 
ATOM      8  O   UNL     1      45.125  40.367 183.452  0.00  0.00    +0.000 OA
ENDBRANCH   1   8
BRANCH   4   9
ATOM      9  C   UNL     1      47.234  35.925 180.596  0.00  0.00    +0.000 C 
ATOM     10  O   UNL     1      46.917  35.635 179.400  0.00  0.00    +0.000 OA
BRANCH   9  11
ATOM     11  C   UNL     1      48.244  35.071 181.344  0.00  0.00    +0.000 C 
ATOM     12  C   UNL     1      48.110  33.717 181.363  0.00  0.00    +0.000 C 
BRANCH  12  13
ATOM     13  C   UNL     1      49.121  32.864 182.112  0.00  0.00    +0.000 A 
ATOM     14  C   UNL     1      50.052  32.130 181.394  0.00  0.00    +0.000 A 
ATOM     15  C   UNL     1      50.738  31.163 182.166  0.00  0.00    +0.000 A 
ATOM     16  C   UNL     1      50.794  31.160 183.486  0.00  0.00    +0.000 A 
ATOM     17  C   UNL     1      49.892  31.957 184.134  0.00  0.00    +0.000 A 
ATOM     18  C   UNL     1      49.095  32.835 183.439  0.00  0.00    +0.000 A 
ENDBRANCH  12  13
ENDBRANCH   9  11
ENDBRANCH   4   9
BRANCH   5  19
ATOM     19  O   UNL     1      45.436  35.695 182.828  0.00  0.00    +0.000 OA
ATOM     20  C   UNL     1      45.975  35.166 184.030  0.00  0.00    +0.000 C 
ENDBRANCH   5  19
BRANCH   6  21
ATOM     21  O   UNL     1      44.649  37.921 184.293  0.00  0.00    +0.000 OA
ATOM     22  C   UNL     1      43.235  37.798 184.249  0.00  0.00    +0.000 C 
ENDBRANCH   6  21
TORSDOF 6
ENDMDL
MODEL 6
REMARK VINA RESULT:    -6.597      3.677      7.465
REMARK INTER + INTRA:          -9.039
REMARK INTER:                  -8.651
REMARK INTRA:                  -0.388
REMARK UNBOUND:                -0.129
REMARK  Name = 
REMARK  9 active torsions:
REMARK  status: ('A' for Active; 'I' for Inactive)
REMARK    1  A    between atoms: C_1  and  O_2
REMARK    2  A    between atoms: O_2  and  C_3
REMARK    3  A    between atoms: C_6  and  C_7
REMARK    4  A    between atoms: C_7  and  C_9
REMARK    5  A    between atoms: C_10  and  C_11
REMARK    6  A    between atoms: C_17  and  O_18
REMARK    7  A    between atoms: O_18  and  C_19
REMARK    8  A    between atoms: C_20  and  O_21
REMARK    9  A    between atoms: O_21  and  C_22
REMARK                            x       y       z     vdW  Elec       q    Type
REMARK                         _______ _______ _______ _____ _____    ______ ____
ROOT
ATOM      1  C   UNL     1      43.959  36.791 185.727  0.00  0.00    +0.000 A 
ATOM      2  C   UNL     1      44.985  37.723 185.686  0.00  0.00    +0.000 A 
ATOM      3  C   UNL     1      45.924  37.497 184.652  0.00  0.00    +0.000 A 
ATOM      4  C   UNL     1      46.068  36.352 184.008  0.00  0.00    +0.000 A 
ATOM      5  C   UNL     1      45.052  35.447 184.143  0.00  0.00    +0.000 A 
ATOM      6  C   UNL     1      44.030  35.659 185.038  0.00  0.00    +0.000 A 
ENDROOT
BRANCH   1   8
ATOM      7  C   UNL     1      43.039  37.009 187.996  0.00  0.00    +0.000 C 
ATOM      8  O   UNL     1      42.841  36.894 186.595  0.00  0.00    +0.000 OA
ENDBRANCH   1   8
BRANCH   4   9
ATOM      9  C   UNL     1      47.295  36.058 183.161  0.00  0.00    +0.000 C 
ATOM     10  O   UNL     1      47.650  36.873 182.252  0.00  0.00    +0.000 OA
BRANCH   9  11
ATOM     11  C   UNL     1      48.098  34.790 183.401  0.00  0.00    +0.000 C 
ATOM     12  C   UNL     1      48.530  34.048 182.345  0.00  0.00    +0.000 C 
BRANCH  12  13
ATOM     13  C   UNL     1      49.332  32.780 182.586  0.00  0.00    +0.000 A 
ATOM     14  C   UNL     1      49.472  32.302 183.879  0.00  0.00    +0.000 A 
ATOM     15  C   UNL     1      50.465  31.303 184.016  0.00  0.00    +0.000 A 
ATOM     16  C   UNL     1      50.971  30.607 183.014  0.00  0.00    +0.000 A 
ATOM     17  C   UNL     1      50.739  31.094 181.758  0.00  0.00    +0.000 A 
ATOM     18  C   UNL     1      49.884  32.151 181.555  0.00  0.00    +0.000 A 
ENDBRANCH  12  13
ENDBRANCH   9  11
ENDBRANCH   4   9
BRANCH   5  19
ATOM     19  O   UNL     1      45.052  34.270 183.349  0.00  0.00    +0.000 OA
ATOM     20  C   UNL     1      44.684  34.337 181.980  0.00  0.00    +0.000 C 
ENDBRANCH   5  19
BRANCH   6  21
ATOM     21  O   UNL     1      43.041  34.658 185.227  0.00  0.00    +0.000 OA
ATOM     22  C   UNL     1      43.304  33.551 186.075  0.00  0.00    +0.000 C 
ENDBRANCH   6  21
TORSDOF 6
ENDMDL
MODEL 7
REMARK VINA RESULT:    -6.528      2.529      3.967
REMARK INTER + INTRA:          -8.946
REMARK INTER:                  -8.215
REMARK INTRA:                  -0.732
REMARK UNBOUND:                -0.129
REMARK  Name = 
REMARK  9 active torsions:
REMARK  status: ('A' for Active; 'I' for Inactive)
REMARK    1  A    between atoms: C_1  and  O_2
REMARK    2  A    between atoms: O_2  and  C_3
REMARK    3  A    between atoms: C_6  and  C_7
REMARK    4  A    between atoms: C_7  and  C_9
REMARK    5  A    between atoms: C_10  and  C_11
REMARK    6  A    between atoms: C_17  and  O_18
REMARK    7  A    between atoms: O_18  and  C_19
REMARK    8  A    between atoms: C_20  and  O_21
REMARK    9  A    between atoms: O_21  and  C_22
REMARK                            x       y       z     vdW  Elec       q    Type
REMARK                         _______ _______ _______ _____ _____    ______ ____
ROOT
ATOM      1  C   UNL     1      49.454  34.307 182.446  0.00  0.00    +0.000 A 
ATOM      2  C   UNL     1      49.741  35.174 183.489  0.00  0.00    +0.000 A 
ATOM      3  C   UNL     1      48.596  35.760 184.078  0.00  0.00    +0.000 A 
ATOM      4  C   UNL     1      47.402  35.804 183.514  0.00  0.00    +0.000 A 
ATOM      5  C   UNL     1      47.203  34.974 182.446  0.00  0.00    +0.000 A 
ATOM      6  C   UNL     1      48.246  34.268 181.896  0.00  0.00    +0.000 A 
ENDROOT
BRANCH   1   8
ATOM      7  C   UNL     1      50.908  32.325 182.414  0.00  0.00    +0.000 C 
ATOM      8  O   UNL     1      50.433  33.511 181.795  0.00  0.00    +0.000 OA
ENDBRANCH   1   8
BRANCH   4   9
ATOM      9  C   UNL     1      46.309  36.728 184.025  0.00  0.00    +0.000 C 
ATOM     10  O   UNL     1      45.537  36.344 184.959  0.00  0.00    +0.000 OA
BRANCH   9  11
ATOM     11  C   UNL     1      46.138  38.112 183.419  0.00  0.00    +0.000 C 
ATOM     12  C   UNL     1      45.071  38.377 182.618  0.00  0.00    +0.000 C 
BRANCH  12  13
ATOM     13  C   UNL     1      44.901  39.761 182.012  0.00  0.00    +0.000 A 
ATOM     14  C   UNL     1      44.986  39.913 180.638  0.00  0.00    +0.000 A 
ATOM     15  C   UNL     1      45.106  41.259 180.217  0.00  0.00    +0.000 A 
ATOM     16  C   UNL     1      44.810  42.307 180.964  0.00  0.00    +0.000 A 
ATOM     17  C   UNL     1      44.673  42.078 182.305  0.00  0.00    +0.000 A 
ATOM     18  C   UNL     1      44.676  40.799 182.808  0.00  0.00    +0.000 A 
ENDBRANCH  12  13
ENDBRANCH   9  11
ENDBRANCH   4   9
BRANCH   5  19
ATOM     19  O   UNL     1      45.901  34.840 181.896  0.00  0.00    +0.000 OA
ATOM     20  C   UNL     1      45.049  33.793 182.337  0.00  0.00    +0.000 C 
ENDBRANCH   5  19
BRANCH   6  21
ATOM     21  O   UNL     1      48.030  33.488 180.729  0.00  0.00    +0.000 OA
ATOM     22  C   UNL     1      48.045  34.105 179.450  0.00  0.00    +0.000 C 
ENDBRANCH   6  21
TORSDOF 6
ENDMDL
MODEL 8
REMARK VINA RESULT:    -6.501      3.449      5.556
REMARK INTER + INTRA:          -8.910
REMARK INTER:                  -8.308
REMARK INTRA:                  -0.602
REMARK UNBOUND:                -0.129
REMARK  Name = 
REMARK  9 active torsions:
REMARK  status: ('A' for Active; 'I' for Inactive)
REMARK    1  A    between atoms: C_1  and  O_2
REMARK    2  A    between atoms: O_2  and  C_3
REMARK    3  A    between atoms: C_6  and  C_7
REMARK    4  A    between atoms: C_7  and  C_9
REMARK    5  A    between atoms: C_10  and  C_11
REMARK    6  A    between atoms: C_17  and  O_18
REMARK    7  A    between atoms: O_18  and  C_19
REMARK    8  A    between atoms: C_20  and  O_21
REMARK    9  A    between atoms: O_21  and  C_22
REMARK                            x       y       z     vdW  Elec       q    Type
REMARK                         _______ _______ _______ _____ _____    ______ ____
ROOT
ATOM      1  C   UNL     1      43.849  36.439 185.345  0.00  0.00    +0.000 A 
ATOM      2  C   UNL     1      43.561  35.246 184.700  0.00  0.00    +0.000 A 
ATOM      3  C   UNL     1      44.627  34.748 183.914  0.00  0.00    +0.000 A 
ATOM      4  C   UNL     1      45.657  35.467 183.507  0.00  0.00    +0.000 A 
ATOM      5  C   UNL     1      45.849  36.666 184.137  0.00  0.00    +0.000 A 
ATOM      6  C   UNL     1      44.916  37.159 185.017  0.00  0.00    +0.000 A 
ENDROOT
BRANCH   1   8
ATOM      7  C   UNL     1      42.999  36.642 187.643  0.00  0.00    +0.000 C 
ATOM      8  O   UNL     1      42.979  37.053 186.284  0.00  0.00    +0.000 OA
ENDBRANCH   1   8
BRANCH   4   9
ATOM      9  C   UNL     1      46.582  34.987 182.400  0.00  0.00    +0.000 C 
ATOM     10  O   UNL     1      47.347  33.991 182.599  0.00  0.00    +0.000 OA
BRANCH   9  11
ATOM     11  C   UNL     1      46.592  35.697 181.057  0.00  0.00    +0.000 C 
ATOM     12  C   UNL     1      47.676  36.429 180.682  0.00  0.00    +0.000 C 
BRANCH  12  13
ATOM     13  C   UNL     1      47.685  37.140 179.338  0.00  0.00    +0.000 A 
ATOM     14  C   UNL     1      47.899  36.404 178.184  0.00  0.00    +0.000 A 
ATOM     15  C   UNL     1      48.175  37.195 177.043  0.00  0.00    +0.000 A 
ATOM     16  C   UNL     1      47.913  38.486 176.945  0.00  0.00    +0.000 A 
ATOM     17  C   UNL     1      47.642  39.141 178.114  0.00  0.00    +0.000 A 
ATOM     18  C   UNL     1      47.487  38.452 179.292  0.00  0.00    +0.000 A 
ENDBRANCH  12  13
ENDBRANCH   9  11
ENDBRANCH   4   9
BRANCH   5  19
ATOM     19  O   UNL     1      47.027  37.413 183.876  0.00  0.00    +0.000 OA
ATOM     20  C   UNL     1      48.195  37.191 184.653  0.00  0.00    +0.000 C 
ENDBRANCH   5  19
BRANCH   6  21
ATOM     21  O   UNL     1      45.094  38.449 185.582  0.00  0.00    +0.000 OA
ATOM     22  C   UNL     1      44.652  39.600 184.877  0.00  0.00    +0.000 C 
ENDBRANCH   6  21
TORSDOF 6
ENDMDL
MODEL 9
REMARK VINA RESULT:    -6.493      3.212      7.802
REMARK INTER + INTRA:          -8.900
REMARK INTER:                  -8.771
REMARK INTRA:                  -0.129
REMARK UNBOUND:                -0.129
REMARK  Name = 
REMARK  9 active torsions:
REMARK  status: ('A' for Active; 'I' for Inactive)
REMARK    1  A    between atoms: C_1  and  O_2
REMARK    2  A    between atoms: O_2  and  C_3
REMARK    3  A    between atoms: C_6  and  C_7
REMARK    4  A    between atoms: C_7  and  C_9
REMARK    5  A    between atoms: C_10  and  C_11
REMARK    6  A    between atoms: C_17  and  O_18
REMARK    7  A    between atoms: O_18  and  C_19
REMARK    8  A    between atoms: C_20  and  O_21
REMARK    9  A    between atoms: O_21  and  C_22
REMARK                            x       y       z     vdW  Elec       q    Type
REMARK                         _______ _______ _______ _____ _____    ______ ____
ROOT
ATOM      1  C   UNL     1      45.542  39.070 180.528  0.00  0.00    +0.000 A 
ATOM      2  C   UNL     1      46.549  38.136 180.343  0.00  0.00    +0.000 A 
ATOM      3  C   UNL     1      46.615  37.155 181.360  0.00  0.00    +0.000 A 
ATOM      4  C   UNL     1      46.058  37.273 182.552  0.00  0.00    +0.000 A 
ATOM      5  C   UNL     1      45.119  38.259 182.690  0.00  0.00    +0.000 A 
ATOM      6  C   UNL     1      44.905  39.175 181.688  0.00  0.00    +0.000 A 
ENDROOT
BRANCH   1   8
ATOM      7  C   UNL     1      44.744  39.684 178.285  0.00  0.00    +0.000 C 
ATOM      8  O   UNL     1      45.209  40.065 179.571  0.00  0.00    +0.000 OA
ENDBRANCH   1   8
BRANCH   4   9
ATOM      9  C   UNL     1      46.438  36.362 183.708  0.00  0.00    +0.000 C 
ATOM     10  O   UNL     1      46.200  36.720 184.904  0.00  0.00    +0.000 OA
BRANCH   9  11
ATOM     11  C   UNL     1      47.103  35.023 183.433  0.00  0.00    +0.000 C 
ATOM     12  C   UNL     1      48.454  34.900 183.534  0.00  0.00    +0.000 C 
BRANCH  12  13
ATOM     13  C   UNL     1      49.118  33.561 183.258  0.00  0.00    +0.000 A 
ATOM     14  C   UNL     1      49.553  32.789 184.323  0.00  0.00    +0.000 A 
ATOM     15  C   UNL     1      50.404  31.722 183.947  0.00  0.00    +0.000 A 
ATOM     16  C   UNL     1      50.512  31.247 182.719  0.00  0.00    +0.000 A 
ATOM     17  C   UNL     1      50.003  32.027 181.719  0.00  0.00    +0.000 A 
ATOM     18  C   UNL     1      49.271  33.155 182.003  0.00  0.00    +0.000 A 
ENDBRANCH  12  13
ENDBRANCH   9  11
ENDBRANCH   4   9
BRANCH   5  19
ATOM     19  O   UNL     1      44.356  38.337 183.884  0.00  0.00    +0.000 OA
ATOM     20  C   UNL     1      43.049  37.785 183.929  0.00  0.00    +0.000 C 
ENDBRANCH   5  19
BRANCH   6  21
ATOM     21  O   UNL     1      43.994  40.244 181.896  0.00  0.00    +0.000 OA
ATOM     22  C   UNL     1      44.423  41.423 182.561  0.00  0.00    +0.000 C 
ENDBRANCH   6  21
TORSDOF 6
ENDMDL
