MODEL 1
REMARK VINA RESULT:    -6.753      0.000      0.000
REMARK INTER + INTRA:          13.695
REMARK INTER:                  -7.548
REMARK INTRA:                  21.244
REMARK UNBOUND:                21.238
REMARK  Name = 
REMARK  3 active torsions:
REMARK  status: ('A' for Active; 'I' for Inactive)
REMARK    1  A    between atoms: C_1  and  O_2
REMARK    2  A    between atoms: O_2  and  C_3
REMARK    3  A    between atoms: C_6  and  C_7
REMARK                            x       y       z     vdW  Elec       q    Type
REMARK                         _______ _______ _______ _____ _____    ______ ____
ROOT
ATOM      1  C   UNL     1      48.437  36.273 183.763  0.00  0.00    +0.000 A 
ATOM      2  C   UNL     1      47.507  36.871 182.840  0.00  0.00    +0.000 A 
ATOM      3  C   UNL     1      47.256  36.248 181.566  0.00  0.00    +0.000 A 
ATOM      4  O   UNL     1      46.436  36.776 180.751  0.00  0.00    +0.000 OA
ATOM      5  C   UNL     1      47.974  34.961 181.195  0.00  0.00    +0.000 A 
ATOM      6  C   UNL     1      48.668  34.820 180.005  0.00  0.00    +0.000 A 
ATOM      7  C   UNL     1      49.159  33.512 179.779  0.00  0.00    +0.000 A 
ATOM      8  C   UNL     1      49.293  32.590 180.715  0.00  0.00    +0.000 A 
ATOM      9  C   UNL     1      48.638  32.820 181.893  0.00  0.00    +0.000 A 
ATOM     10  C   UNL     1      48.022  34.025 182.136  0.00  0.00    +0.000 A 
ATOM     11  O   UNL     1      48.672  36.854 184.953  0.00  0.00    +0.000 OA
ENDROOT
BRANCH   1  15
ATOM     12  C   UNL     1      50.581  32.677 182.921  0.00  0.00    +0.000 A 
ATOM     13  C   UNL     1      49.480  32.613 183.758  0.00  0.00    +0.000 A 
ATOM     14  C   UNL     1      48.719  33.805 183.795  0.00  0.00    +0.000 A 
ATOM     15  C   UNL     1      49.154  34.985 183.393  0.00  0.00    +0.000 A 
ATOM     16  C   UNL     1      50.286  34.986 182.625  0.00  0.00    +0.000 A 
ATOM     17  C   UNL     1      51.012  33.835 182.436  0.00  0.00    +0.000 A 
BRANCH  12  19
ATOM     18  C   UNL     1      51.021  30.271 183.185  0.00  0.00    +0.000 C 
ATOM     19  O   UNL     1      51.177  31.476 182.450  0.00  0.00    +0.000 OA
ENDBRANCH  12  19
ENDBRANCH   1  15
TORSDOF 2
ENDMDL
MODEL 2
REMARK VINA RESULT:    -6.731      4.208      6.950
REMARK INTER + INTRA:          13.720
REMARK INTER:                  -7.532
REMARK INTRA:                  21.252
REMARK UNBOUND:                21.238
REMARK  Name = 
REMARK  3 active torsions:
REMARK  status: ('A' for Active; 'I' for Inactive)
REMARK    1  A    between atoms: C_1  and  O_2
REMARK    2  A    between atoms: O_2  and  C_3
REMARK    3  A    between atoms: C_6  and  C_7
REMARK                            x       y       z     vdW  Elec       q    Type
REMARK                         _______ _______ _______ _____ _____    ______ ____
ROOT
ATOM      1  C   UNL     1      45.185  34.851 182.861  0.00  0.00    +0.000 A 
ATOM      2  C   UNL     1      46.037  35.647 182.016  0.00  0.00    +0.000 A 
ATOM      3  C   UNL     1      46.252  37.039 182.317  0.00  0.00    +0.000 A 
ATOM      4  O   UNL     1      47.003  37.742 181.571  0.00  0.00    +0.000 OA
ATOM      5  C   UNL     1      45.578  37.668 183.526  0.00  0.00    +0.000 A 
ATOM      6  C   UNL     1      44.832  38.830 183.433  0.00  0.00    +0.000 A 
ATOM      7  C   UNL     1      44.393  39.331 184.681  0.00  0.00    +0.000 A 
ATOM      8  C   UNL     1      44.352  38.628 185.798  0.00  0.00    +0.000 A 
ATOM      9  C   UNL     1      45.054  37.455 185.804  0.00  0.00    +0.000 A 
ATOM     10  C   UNL     1      45.624  36.966 184.652  0.00  0.00    +0.000 A 
ATOM     11  O   UNL     1      44.984  33.551 182.580  0.00  0.00    +0.000 OA
ENDROOT
BRANCH   1  15
ATOM     12  C   UNL     1      43.174  36.413 186.289  0.00  0.00    +0.000 A 
ATOM     13  C   UNL     1      44.313  35.648 186.478  0.00  0.00    +0.000 A 
ATOM     14  C   UNL     1      45.019  35.368 185.285  0.00  0.00    +0.000 A 
ATOM     15  C   UNL     1      44.512  35.479 184.071  0.00  0.00    +0.000 A 
ATOM     16  C   UNL     1      43.349  36.190 183.960  0.00  0.00    +0.000 A 
ATOM     17  C   UNL     1      42.670  36.611 185.077  0.00  0.00    +0.000 A 
BRANCH  12  19
ATOM     18  C   UNL     1      42.937  36.746 188.715  0.00  0.00    +0.000 C 
ATOM     19  O   UNL     1      42.614  37.123 187.385  0.00  0.00    +0.000 OA
ENDBRANCH  12  19
ENDBRANCH   1  15
TORSDOF 2
ENDMDL
MODEL 3
REMARK VINA RESULT:    -6.628      1.514      5.176
REMARK INTER + INTRA:          13.835
REMARK INTER:                  -7.464
REMARK INTRA:                  21.299
REMARK UNBOUND:                21.238
REMARK  Name = 
REMARK  3 active torsions:
REMARK  status: ('A' for Active; 'I' for Inactive)
REMARK    1  A    between atoms: C_1  and  O_2
REMARK    2  A    between atoms: O_2  and  C_3
REMARK    3  A    between atoms: C_6  and  C_7
REMARK                            x       y       z     vdW  Elec       q    Type
REMARK                         _______ _______ _______ _____ _____    ______ ____
ROOT
ATOM      1  C   UNL     1      49.371  32.309 180.273  0.00  0.00    +0.000 A 
ATOM      2  C   UNL     1      50.151  31.730 181.337  0.00  0.00    +0.000 A 
ATOM      3  C   UNL     1      50.100  32.300 182.658  0.00  0.00    +0.000 A 
ATOM      4  O   UNL     1      50.788  31.790 183.597  0.00  0.00    +0.000 OA
ATOM      5  C   UNL     1      49.225  33.513 182.930  0.00  0.00    +0.000 A 
ATOM      6  C   UNL     1      49.716  34.655 183.538  0.00  0.00    +0.000 A 
ATOM      7  C   UNL     1      48.725  35.625 183.823  0.00  0.00    +0.000 A 
ATOM      8  C   UNL     1      47.525  35.654 183.271  0.00  0.00    +0.000 A 
ATOM      9  C   UNL     1      47.125  34.517 182.626  0.00  0.00    +0.000 A 
ATOM     10  C   UNL     1      47.997  33.474 182.425  0.00  0.00    +0.000 A 
ATOM     11  O   UNL     1      49.419  31.777 179.038  0.00  0.00    +0.000 OA
ENDROOT
BRANCH   1  15
ATOM     12  C   UNL     1      46.863  35.725 180.803  0.00  0.00    +0.000 A 
ATOM     13  C   UNL     1      46.278  34.470 180.764  0.00  0.00    +0.000 A 
ATOM     14  C   UNL     1      47.207  33.404 180.807  0.00  0.00    +0.000 A 
ATOM     15  C   UNL     1      48.495  33.521 180.545  0.00  0.00    +0.000 A 
ATOM     16  C   UNL     1      48.999  34.792 180.530  0.00  0.00    +0.000 A 
ATOM     17  C   UNL     1      48.168  35.883 180.615  0.00  0.00    +0.000 A 
BRANCH  12  19
ATOM     18  C   UNL     1      46.377  38.131 180.658  0.00  0.00    +0.000 C 
ATOM     19  O   UNL     1      46.089  36.850 181.195  0.00  0.00    +0.000 OA
ENDBRANCH  12  19
ENDBRANCH   1  15
TORSDOF 2
ENDMDL
MODEL 4
REMARK VINA RESULT:    -6.564      4.147      6.161
REMARK INTER + INTRA:          13.907
REMARK INTER:                  -7.334
REMARK INTRA:                  21.240
REMARK UNBOUND:                21.238
REMARK  Name = 
REMARK  3 active torsions:
REMARK  status: ('A' for Active; 'I' for Inactive)
REMARK    1  A    between atoms: C_1  and  O_2
REMARK    2  A    between atoms: O_2  and  C_3
REMARK    3  A    between atoms: C_6  and  C_7
REMARK                            x       y       z     vdW  Elec       q    Type
REMARK                         _______ _______ _______ _____ _____    ______ ____
ROOT
ATOM      1  C   UNL     1      43.856  37.342 186.452  0.00  0.00    +0.000 A 
ATOM      2  C   UNL     1      43.473  35.986 186.755  0.00  0.00    +0.000 A 
ATOM      3  C   UNL     1      43.950  34.903 185.935  0.00  0.00    +0.000 A 
ATOM      4  O   UNL     1      43.611  33.707 186.201  0.00  0.00    +0.000 OA
ATOM      5  C   UNL     1      44.857  35.190 184.749  0.00  0.00    +0.000 A 
ATOM      6  C   UNL     1      44.583  34.711 183.479  0.00  0.00    +0.000 A 
ATOM      7  C   UNL     1      45.606  34.972 182.536  0.00  0.00    +0.000 A 
ATOM      8  C   UNL     1      46.558  35.874 182.692  0.00  0.00    +0.000 A 
ATOM      9  C   UNL     1      46.733  36.358 183.959  0.00  0.00    +0.000 A 
ATOM     10  C   UNL     1      45.851  36.043 184.965  0.00  0.00    +0.000 A 
ATOM     11  O   UNL     1      43.411  38.354 187.218  0.00  0.00    +0.000 OA
ENDROOT
BRANCH   1  15
ATOM     12  C   UNL     1      46.371  38.380 183.161  0.00  0.00    +0.000 A 
ATOM     13  C   UNL     1      46.919  38.353 184.432  0.00  0.00    +0.000 A 
ATOM     14  C   UNL     1      46.066  37.789 185.411  0.00  0.00    +0.000 A 
ATOM     15  C   UNL     1      44.764  37.628 185.267  0.00  0.00    +0.000 A 
ATOM     16  C   UNL     1      44.275  37.734 183.994  0.00  0.00    +0.000 A 
ATOM     17  C   UNL     1      45.079  38.153 182.962  0.00  0.00    +0.000 A 
BRANCH  12  19
ATOM     18  C   UNL     1      46.746  39.119 180.845  0.00  0.00    +0.000 C 
ATOM     19  O   UNL     1      47.224  38.504 182.031  0.00  0.00    +0.000 OA
ENDBRANCH  12  19
ENDBRANCH   1  15
TORSDOF 2
ENDMDL
MODEL 5
REMARK VINA RESULT:    -6.474      1.610      3.329
REMARK INTER + INTRA:          14.007
REMARK INTER:                  -7.231
REMARK INTRA:                  21.238
REMARK UNBOUND:                21.238
REMARK  Name = 
REMARK  3 active torsions:
REMARK  status: ('A' for Active; 'I' for Inactive)
REMARK    1  A    between atoms: C_1  and  O_2
REMARK    2  A    between atoms: O_2  and  C_3
REMARK    3  A    between atoms: C_6  and  C_7
REMARK                            x       y       z     vdW  Elec       q    Type
REMARK                         _______ _______ _______ _____ _____    ______ ____
ROOT
ATOM      1  C   UNL     1      48.596  34.900 178.790  0.00  0.00    +0.000 A 
ATOM      2  C   UNL     1      47.583  35.921 178.862  0.00  0.00    +0.000 A 
ATOM      3  C   UNL     1      47.065  36.332 180.141  0.00  0.00    +0.000 A 
ATOM      4  O   UNL     1      46.171  37.233 180.205  0.00  0.00    +0.000 OA
ATOM      5  C   UNL     1      47.587  35.688 181.415  0.00  0.00    +0.000 A 
ATOM      6  C   UNL     1      46.740  35.142 182.366  0.00  0.00    +0.000 A 
ATOM      7  C   UNL     1      47.401  34.706 183.539  0.00  0.00    +0.000 A 
ATOM      8  C   UNL     1      48.699  34.480 183.627  0.00  0.00    +0.000 A 
ATOM      9  C   UNL     1      49.474  34.986 182.622  0.00  0.00    +0.000 A 
ATOM     10  C   UNL     1      48.904  35.547 181.503  0.00  0.00    +0.000 A 
ATOM     11  O   UNL     1      49.080  34.515 177.595  0.00  0.00    +0.000 OA
ENDROOT
BRANCH   1  15
ATOM     12  C   UNL     1      50.187  32.938 182.234  0.00  0.00    +0.000 A 
ATOM     13  C   UNL     1      50.938  33.934 181.630  0.00  0.00    +0.000 A 
ATOM     14  C   UNL     1      50.233  34.663 180.643  0.00  0.00    +0.000 A 
ATOM     15  C   UNL     1      49.119  34.256 180.064  0.00  0.00    +0.000 A 
ATOM     16  C   UNL     1      48.459  33.223 180.672  0.00  0.00    +0.000 A 
ATOM     17  C   UNL     1      49.025  32.547 181.725  0.00  0.00    +0.000 A 
BRANCH  12  19
ATOM     18  C   UNL     1      50.239  31.101 183.868  0.00  0.00    +0.000 C 
ATOM     19  O   UNL     1      50.587  32.426 183.497  0.00  0.00    +0.000 OA
ENDBRANCH  12  19
ENDBRANCH   1  15
TORSDOF 2
ENDMDL
