MODEL 1
REMARK VINA RESULT:    -6.719      0.000      0.000
REMARK INTER + INTRA:           8.634
REMARK INTER:                  -7.938
REMARK INTRA:                  16.572
REMARK UNBOUND:                16.532
REMARK  Name = 
REMARK  5 active torsions:
REMARK  status: ('A' for Active; 'I' for Inactive)
REMARK    1  A    between atoms: C_1  and  O_2
REMARK    2  A    between atoms: O_2  and  C_3
REMARK    3  A    between atoms: C_6  and  C_7
REMARK    4  A    between atoms: C_19  and  O_20
REMARK    5  A    between atoms: O_20  and  C_21
REMARK                            x       y       z     vdW  Elec       q    Type
REMARK                         _______ _______ _______ _____ _____    ______ ____
ROOT
ATOM      1  C   UNL     1      46.459  36.414 182.797  0.00  0.00    +0.000 A 
ATOM      2  C   UNL     1      45.947  37.400 181.879  0.00  0.00    +0.000 A 
ATOM      3  C   UNL     1      46.314  37.347 180.488  0.00  0.00    +0.000 A 
ATOM      4  O   UNL     1      45.862  38.217 179.678  0.00  0.00    +0.000 OA
ATOM      5  C   UNL     1      47.241  36.252 179.986  0.00  0.00    +0.000 A 
ATOM      6  C   UNL     1      48.281  36.666 179.170  0.00  0.00    +0.000 A 
ATOM      7  C   UNL     1      48.964  35.606 178.529  0.00  0.00    +0.000 A 
ATOM      8  C   UNL     1      48.905  34.341 178.906  0.00  0.00    +0.000 A 
ATOM      9  C   UNL     1      47.897  34.009 179.767  0.00  0.00    +0.000 A 
ATOM     10  C   UNL     1      47.103  34.977 180.333  0.00  0.00    +0.000 A 
ATOM     11  O   UNL     1      46.117  36.463 184.096  0.00  0.00    +0.000 OA
ENDROOT
BRANCH   1  15
ATOM     12  C   UNL     1      49.096  33.269 181.614  0.00  0.00    +0.000 A 
ATOM     13  C   UNL     1      47.760  32.972 181.825  0.00  0.00    +0.000 A 
ATOM     14  C   UNL     1      46.939  34.112 181.997  0.00  0.00    +0.000 A 
ATOM     15  C   UNL     1      47.386  35.319 182.295  0.00  0.00    +0.000 A 
ATOM     16  C   UNL     1      48.727  35.529 182.131  0.00  0.00    +0.000 A 
ATOM     17  C   UNL     1      49.574  34.488 181.834  0.00  0.00    +0.000 A 
BRANCH  12  19
ATOM     18  C   UNL     1      50.634  31.382 181.964  0.00  0.00    +0.000 C 
ATOM     19  O   UNL     1      49.937  32.254 181.086  0.00  0.00    +0.000 OA
ENDBRANCH  12  19
BRANCH  17  20
ATOM     20  O   UNL     1      50.973  34.719 181.762  0.00  0.00    +0.000 OA
ATOM     21  C   UNL     1      51.724  34.900 182.953  0.00  0.00    +0.000 C 
ENDBRANCH  17  20
ENDBRANCH   1  15
TORSDOF 3
ENDMDL
MODEL 2
REMARK VINA RESULT:    -6.680      2.768      6.138
REMARK INTER + INTRA:           8.680
REMARK INTER:                  -7.928
REMARK INTRA:                  16.608
REMARK UNBOUND:                16.532
REMARK  Name = 
REMARK  5 active torsions:
REMARK  status: ('A' for Active; 'I' for Inactive)
REMARK    1  A    between atoms: C_1  and  O_2
REMARK    2  A    between atoms: O_2  and  C_3
REMARK    3  A    between atoms: C_6  and  C_7
REMARK    4  A    between atoms: C_19  and  O_20
REMARK    5  A    between atoms: O_20  and  C_21
REMARK                            x       y       z     vdW  Elec       q    Type
REMARK                         _______ _______ _______ _____ _____    ______ ____
ROOT
ATOM      1  C   UNL     1      47.276  35.951 182.152  0.00  0.00    +0.000 A 
ATOM      2  C   UNL     1      47.571  36.660 180.933  0.00  0.00    +0.000 A 
ATOM      3  C   UNL     1      47.033  37.977 180.717  0.00  0.00    +0.000 A 
ATOM      4  O   UNL     1      47.293  38.602 179.641  0.00  0.00    +0.000 OA
ATOM      5  C   UNL     1      46.152  38.621 181.776  0.00  0.00    +0.000 A 
ATOM      6  C   UNL     1      44.981  39.202 181.317  0.00  0.00    +0.000 A 
ATOM      7  C   UNL     1      44.320  39.999 182.281  0.00  0.00    +0.000 A 
ATOM      8  C   UNL     1      44.543  39.939 183.582  0.00  0.00    +0.000 A 
ATOM      9  C   UNL     1      45.681  39.292 183.976  0.00  0.00    +0.000 A 
ATOM     10  C   UNL     1      46.450  38.602 183.070  0.00  0.00    +0.000 A 
ATOM     11  O   UNL     1      47.779  34.720 182.354  0.00  0.00    +0.000 OA
ENDROOT
BRANCH   1  15
ATOM     12  C   UNL     1      44.806  37.555 185.245  0.00  0.00    +0.000 A 
ATOM     13  C   UNL     1      46.180  37.563 185.420  0.00  0.00    +0.000 A 
ATOM     14  C   UNL     1      46.908  37.216 184.258  0.00  0.00    +0.000 A 
ATOM     15  C   UNL     1      46.395  36.595 183.211  0.00  0.00    +0.000 A 
ATOM     16  C   UNL     1      45.031  36.562 183.131  0.00  0.00    +0.000 A 
ATOM     17  C   UNL     1      44.251  37.005 184.173  0.00  0.00    +0.000 A 
BRANCH  12  19
ATOM     18  C   UNL     1      43.422  37.478 187.277  0.00  0.00    +0.000 C 
ATOM     19  O   UNL     1      44.000  38.215 186.211  0.00  0.00    +0.000 OA
ENDBRANCH  12  19
BRANCH  17  20
ATOM     20  O   UNL     1      42.840  36.871 184.101  0.00  0.00    +0.000 OA
ATOM     21  C   UNL     1      42.242  35.588 184.220  0.00  0.00    +0.000 C 
ENDBRANCH  17  20
ENDBRANCH   1  15
TORSDOF 3
ENDMDL
MODEL 3
REMARK VINA RESULT:    -6.562      1.957      5.092
REMARK INTER + INTRA:           8.819
REMARK INTER:                  -7.718
REMARK INTRA:                  16.537
REMARK UNBOUND:                16.532
REMARK  Name = 
REMARK  5 active torsions:
REMARK  status: ('A' for Active; 'I' for Inactive)
REMARK    1  A    between atoms: C_1  and  O_2
REMARK    2  A    between atoms: O_2  and  C_3
REMARK    3  A    between atoms: C_6  and  C_7
REMARK    4  A    between atoms: C_19  and  O_20
REMARK    5  A    between atoms: O_20  and  C_21
REMARK                            x       y       z     vdW  Elec       q    Type
REMARK                         _______ _______ _______ _____ _____    ______ ____
ROOT
ATOM      1  C   UNL     1      49.733  33.502 184.059  0.00  0.00    +0.000 A 
ATOM      2  C   UNL     1      50.128  32.690 182.936  0.00  0.00    +0.000 A 
ATOM      3  C   UNL     1      49.499  32.875 181.656  0.00  0.00    +0.000 A 
ATOM      4  O   UNL     1      49.848  32.158 180.665  0.00  0.00    +0.000 OA
ATOM      5  C   UNL     1      48.415  33.928 181.486  0.00  0.00    +0.000 A 
ATOM      6  C   UNL     1      47.271  33.517 180.823  0.00  0.00    +0.000 A 
ATOM      7  C   UNL     1      46.402  34.576 180.468  0.00  0.00    +0.000 A 
ATOM      8  C   UNL     1      46.440  35.786 180.998  0.00  0.00    +0.000 A 
ATOM      9  C   UNL     1      47.569  36.107 181.700  0.00  0.00    +0.000 A 
ATOM     10  C   UNL     1      48.524  35.159 181.973  0.00  0.00    +0.000 A 
ATOM     11  O   UNL     1      50.321  33.330 185.255  0.00  0.00    +0.000 OA
ENDROOT
BRANCH   1  15
ATOM     12  C   UNL     1      46.692  36.492 183.818  0.00  0.00    +0.000 A 
ATOM     13  C   UNL     1      48.017  36.893 183.857  0.00  0.00    +0.000 A 
ATOM     14  C   UNL     1      48.942  35.832 183.714  0.00  0.00    +0.000 A 
ATOM     15  C   UNL     1      48.650  34.555 183.889  0.00  0.00    +0.000 A 
ATOM     16  C   UNL     1      47.321  34.233 183.910  0.00  0.00    +0.000 A 
ATOM     17  C   UNL     1      46.356  35.212 183.919  0.00  0.00    +0.000 A 
BRANCH  12  19
ATOM     18  C   UNL     1      46.003  38.853 183.778  0.00  0.00    +0.000 C 
ATOM     19  O   UNL     1      45.695  37.479 183.597  0.00  0.00    +0.000 OA
ENDBRANCH  12  19
BRANCH  17  20
ATOM     20  O   UNL     1      44.989  34.849 184.037  0.00  0.00    +0.000 OA
ATOM     21  C   UNL     1      44.415  34.655 185.321  0.00  0.00    +0.000 C 
ENDBRANCH  17  20
ENDBRANCH   1  15
TORSDOF 3
ENDMDL
MODEL 4
REMARK VINA RESULT:    -6.435      2.720      4.521
REMARK INTER + INTRA:           8.968
REMARK INTER:                  -7.564
REMARK INTRA:                  16.532
REMARK UNBOUND:                16.532
REMARK  Name = 
REMARK  5 active torsions:
REMARK  status: ('A' for Active; 'I' for Inactive)
REMARK    1  A    between atoms: C_1  and  O_2
REMARK    2  A    between atoms: O_2  and  C_3
REMARK    3  A    between atoms: C_6  and  C_7
REMARK    4  A    between atoms: C_19  and  O_20
REMARK    5  A    between atoms: O_20  and  C_21
REMARK                            x       y       z     vdW  Elec       q    Type
REMARK                         _______ _______ _______ _____ _____    ______ ____
ROOT
ATOM      1  C   UNL     1      44.120  34.885 185.500  0.00  0.00    +0.000 A 
ATOM      2  C   UNL     1      43.657  36.058 186.196  0.00  0.00    +0.000 A 
ATOM      3  C   UNL     1      44.190  37.352 185.861  0.00  0.00    +0.000 A 
ATOM      4  O   UNL     1      43.781  38.387 186.476  0.00  0.00    +0.000 OA
ATOM      5  C   UNL     1      45.242  37.483 184.771  0.00  0.00    +0.000 A 
ATOM      6  C   UNL     1      46.342  38.265 185.083  0.00  0.00    +0.000 A 
ATOM      7  C   UNL     1      47.166  38.564 183.973  0.00  0.00    +0.000 A 
ATOM      8  C   UNL     1      47.147  37.905 182.828  0.00  0.00    +0.000 A 
ATOM      9  C   UNL     1      46.068  37.095 182.609  0.00  0.00    +0.000 A 
ATOM     10  C   UNL     1      45.149  36.859 183.603  0.00  0.00    +0.000 A 
ATOM     11  O   UNL     1      43.623  33.676 185.812  0.00  0.00    +0.000 OA
ENDROOT
BRANCH   1  15
ATOM     12  C   UNL     1      47.087  35.015 182.430  0.00  0.00    +0.000 A 
ATOM     13  C   UNL     1      45.760  34.857 182.066  0.00  0.00    +0.000 A 
ATOM     14  C   UNL     1      44.847  35.046 183.130  0.00  0.00    +0.000 A 
ATOM     15  C   UNL     1      45.172  35.016 184.410  0.00  0.00    +0.000 A 
ATOM     16  C   UNL     1      46.504  35.107 184.701  0.00  0.00    +0.000 A 
ATOM     17  C   UNL     1      47.451  35.061 183.705  0.00  0.00    +0.000 A 
BRANCH  12  19
ATOM     18  C   UNL     1      47.730  34.864 180.060  0.00  0.00    +0.000 C 
ATOM     19  O   UNL     1      48.050  35.198 181.403  0.00  0.00    +0.000 OA
ENDBRANCH  12  19
BRANCH  17  20
ATOM     20  O   UNL     1      48.829  35.062 184.045  0.00  0.00    +0.000 OA
ATOM     21  C   UNL     1      49.472  33.848 184.405  0.00  0.00    +0.000 C 
ENDBRANCH  17  20
ENDBRANCH   1  15
TORSDOF 3
ENDMDL
