MODEL 1
REMARK VINA RESULT:    -7.402      0.000      0.000
REMARK INTER + INTRA:          -9.153
REMARK INTER:                  -8.701
REMARK INTRA:                  -0.452
REMARK UNBOUND:                -0.453
REMARK  Name = 
REMARK  5 active torsions:
REMARK  status: ('A' for Active; 'I' for Inactive)
REMARK    1  A    between atoms: C_4  and  C_5
REMARK    2  A    between atoms: C_14  and  O_15
REMARK    3  A    between atoms: O_15  and  C_16
REMARK    4  A    between atoms: C_18  and  O_19
REMARK    5  A    between atoms: O_19  and  C_20
REMARK                            x       y       z     vdW  Elec       q    Type
REMARK                         _______ _______ _______ _____ _____    ______ ____
ROOT
ATOM      1  O   UNL     1      47.130  37.322 180.623  0.00  0.00    +0.000 OA
ATOM      2  C   UNL     1      47.045  36.546 181.577  0.00  0.00    +0.000 A 
ATOM      3  C   UNL     1      46.159  36.706 182.713  0.00  0.00    +0.000 A 
ATOM      4  C   UNL     1      46.138  35.700 183.704  0.00  0.00    +0.000 A 
ATOM      5  O   UNL     1      46.960  34.630 183.695  0.00  0.00    +0.000 OA
ATOM      6  C   UNL     1      47.818  34.424 182.630  0.00  0.00    +0.000 A 
ATOM      7  C   UNL     1      48.584  33.270 182.680  0.00  0.00    +0.000 A 
ATOM      8  C   UNL     1      49.436  33.014 181.623  0.00  0.00    +0.000 A 
ATOM      9  C   UNL     1      49.524  33.888 180.548  0.00  0.00    +0.000 A 
ATOM     10  C   UNL     1      48.755  35.032 180.526  0.00  0.00    +0.000 A 
ATOM     11  C   UNL     1      47.883  35.321 181.583  0.00  0.00    +0.000 A 
ENDROOT
BRANCH   4  12
ATOM     12  C   UNL     1      45.138  35.831 184.841  0.00  0.00    +0.000 A 
ATOM     13  C   UNL     1      44.803  37.093 185.303  0.00  0.00    +0.000 A 
ATOM     14  C   UNL     1      44.103  37.086 186.533  0.00  0.00    +0.000 A 
ATOM     15  C   UNL     1      43.493  36.031 187.042  0.00  0.00    +0.000 A 
ATOM     16  C   UNL     1      43.817  34.820 186.497  0.00  0.00    +0.000 A 
ATOM     17  C   UNL     1      44.602  34.738 185.372  0.00  0.00    +0.000 A 
ENDBRANCH   4  12
BRANCH   8  18
ATOM     18  O   UNL     1      50.235  31.841 181.636  0.00  0.00    +0.000 OA
ATOM     19  C   UNL     1      50.890  31.440 182.831  0.00  0.00    +0.000 C 
ENDBRANCH   8  18
BRANCH  10  20
ATOM     20  O   UNL     1      48.849  35.924 179.425  0.00  0.00    +0.000 OA
ATOM     21  C   UNL     1      48.773  35.424 178.098  0.00  0.00    +0.000 C 
ENDBRANCH  10  20
TORSDOF 3
ENDMDL
MODEL 2
REMARK VINA RESULT:    -7.368      4.372      7.638
REMARK INTER + INTRA:          -9.114
REMARK INTER:                  -8.677
REMARK INTRA:                  -0.437
REMARK UNBOUND:                -0.453
REMARK  Name = 
REMARK  5 active torsions:
REMARK  status: ('A' for Active; 'I' for Inactive)
REMARK    1  A    between atoms: C_4  and  C_5
REMARK    2  A    between atoms: C_14  and  O_15
REMARK    3  A    between atoms: O_15  and  C_16
REMARK    4  A    between atoms: C_18  and  O_19
REMARK    5  A    between atoms: O_19  and  C_20
REMARK                            x       y       z     vdW  Elec       q    Type
REMARK                         _______ _______ _______ _____ _____    ______ ____
ROOT
ATOM      1  O   UNL     1      44.896  35.302 183.595  0.00  0.00    +0.000 OA
ATOM      2  C   UNL     1      44.676  36.464 183.942  0.00  0.00    +0.000 A 
ATOM      3  C   UNL     1      44.837  37.636 183.104  0.00  0.00    +0.000 A 
ATOM      4  C   UNL     1      44.494  38.900 183.631  0.00  0.00    +0.000 A 
ATOM      5  O   UNL     1      44.097  39.091 184.906  0.00  0.00    +0.000 OA
ATOM      6  C   UNL     1      43.917  38.007 185.746  0.00  0.00    +0.000 A 
ATOM      7  C   UNL     1      43.455  38.295 187.020  0.00  0.00    +0.000 A 
ATOM      8  C   UNL     1      43.239  37.237 187.882  0.00  0.00    +0.000 A 
ATOM      9  C   UNL     1      43.480  35.930 187.485  0.00  0.00    +0.000 A 
ATOM     10  C   UNL     1      43.946  35.671 186.213  0.00  0.00    +0.000 A 
ATOM     11  C   UNL     1      44.177  36.721 185.316  0.00  0.00    +0.000 A 
ENDROOT
BRANCH   4  12
ATOM     12  C   UNL     1      44.576  40.109 182.713  0.00  0.00    +0.000 A 
ATOM     13  C   UNL     1      44.883  39.921 181.375  0.00  0.00    +0.000 A 
ATOM     14  C   UNL     1      45.217  41.113 180.690  0.00  0.00    +0.000 A 
ATOM     15  C   UNL     1      44.933  42.329 181.121  0.00  0.00    +0.000 A 
ATOM     16  C   UNL     1      44.570  42.439 182.435  0.00  0.00    +0.000 A 
ATOM     17  C   UNL     1      44.352  41.322 183.205  0.00  0.00    +0.000 A 
ENDBRANCH   4  12
BRANCH   8  18
ATOM     18  O   UNL     1      42.762  37.491 189.195  0.00  0.00    +0.000 OA
ATOM     19  C   UNL     1      41.397  37.261 189.513  0.00  0.00    +0.000 C 
ENDBRANCH   8  18
BRANCH  10  20
ATOM     20  O   UNL     1      44.194  34.332 185.811  0.00  0.00    +0.000 OA
ATOM     21  C   UNL     1      43.151  33.369 185.868  0.00  0.00    +0.000 C 
ENDBRANCH  10  20
TORSDOF 3
ENDMDL
MODEL 3
REMARK VINA RESULT:    -7.333      1.630      6.122
REMARK INTER + INTRA:          -9.072
REMARK INTER:                  -8.626
REMARK INTRA:                  -0.446
REMARK UNBOUND:                -0.453
REMARK  Name = 
REMARK  5 active torsions:
REMARK  status: ('A' for Active; 'I' for Inactive)
REMARK    1  A    between atoms: C_4  and  C_5
REMARK    2  A    between atoms: C_14  and  O_15
REMARK    3  A    between atoms: O_15  and  C_16
REMARK    4  A    between atoms: C_18  and  O_19
REMARK    5  A    between atoms: O_19  and  C_20
REMARK                            x       y       z     vdW  Elec       q    Type
REMARK                         _______ _______ _______ _____ _____    ______ ____
ROOT
ATOM      1  O   UNL     1      46.986  37.550 180.913  0.00  0.00    +0.000 OA
ATOM      2  C   UNL     1      47.032  36.630 181.731  0.00  0.00    +0.000 A 
ATOM      3  C   UNL     1      47.972  35.527 181.702  0.00  0.00    +0.000 A 
ATOM      4  C   UNL     1      47.934  34.574 182.745  0.00  0.00    +0.000 A 
ATOM      5  O   UNL     1      47.013  34.588 183.731  0.00  0.00    +0.000 OA
ATOM      6  C   UNL     1      46.099  35.624 183.811  0.00  0.00    +0.000 A 
ATOM      7  C   UNL     1      45.228  35.583 184.888  0.00  0.00    +0.000 A 
ATOM      8  C   UNL     1      44.315  36.612 185.019  0.00  0.00    +0.000 A 
ATOM      9  C   UNL     1      44.271  37.650 184.098  0.00  0.00    +0.000 A 
ATOM     10  C   UNL     1      45.145  37.663 183.032  0.00  0.00    +0.000 A 
ATOM     11  C   UNL     1      46.081  36.634 182.871  0.00  0.00    +0.000 A 
ENDROOT
BRANCH   4  12
ATOM     12  C   UNL     1      48.984  33.477 182.756  0.00  0.00    +0.000 A 
ATOM     13  C   UNL     1      49.539  33.061 181.556  0.00  0.00    +0.000 A 
ATOM     14  C   UNL     1      50.274  31.856 181.651  0.00  0.00    +0.000 A 
ATOM     15  C   UNL     1      50.723  31.339 182.781  0.00  0.00    +0.000 A 
ATOM     16  C   UNL     1      50.186  31.841 183.934  0.00  0.00    +0.000 A 
ATOM     17  C   UNL     1      49.355  32.935 183.910  0.00  0.00    +0.000 A 
ENDBRANCH   4  12
BRANCH   8  18
ATOM     18  O   UNL     1      43.408  36.608 186.111  0.00  0.00    +0.000 OA
ATOM     19  C   UNL     1      43.739  35.919 187.308  0.00  0.00    +0.000 C 
ENDBRANCH   8  18
BRANCH  10  20
ATOM     20  O   UNL     1      45.096  38.726 182.092  0.00  0.00    +0.000 OA
ATOM     21  C   UNL     1      44.205  39.812 182.295  0.00  0.00    +0.000 C 
ENDBRANCH  10  20
TORSDOF 3
ENDMDL
MODEL 4
REMARK VINA RESULT:    -7.196      2.740      5.857
REMARK INTER + INTRA:          -8.912
REMARK INTER:                  -8.449
REMARK INTRA:                  -0.463
REMARK UNBOUND:                -0.453
REMARK  Name = 
REMARK  5 active torsions:
REMARK  status: ('A' for Active; 'I' for Inactive)
REMARK    1  A    between atoms: C_4  and  C_5
REMARK    2  A    between atoms: C_14  and  O_15
REMARK    3  A    between atoms: O_15  and  C_16
REMARK    4  A    between atoms: C_18  and  O_19
REMARK    5  A    between atoms: O_19  and  C_20
REMARK                            x       y       z     vdW  Elec       q    Type
REMARK                         _______ _______ _______ _____ _____    ______ ____
ROOT
ATOM      1  O   UNL     1      49.131  35.842 178.211  0.00  0.00    +0.000 OA
ATOM      2  C   UNL     1      48.784  35.486 179.339  0.00  0.00    +0.000 A 
ATOM      3  C   UNL     1      49.262  34.305 180.030  0.00  0.00    +0.000 A 
ATOM      4  C   UNL     1      48.809  34.058 181.345  0.00  0.00    +0.000 A 
ATOM      5  O   UNL     1      47.889  34.821 181.970  0.00  0.00    +0.000 OA
ATOM      6  C   UNL     1      47.407  35.965 181.359  0.00  0.00    +0.000 A 
ATOM      7  C   UNL     1      46.506  36.716 182.098  0.00  0.00    +0.000 A 
ATOM      8  C   UNL     1      46.020  37.879 181.534  0.00  0.00    +0.000 A 
ATOM      9  C   UNL     1      46.419  38.280 180.266  0.00  0.00    +0.000 A 
ATOM     10  C   UNL     1      47.311  37.512 179.549  0.00  0.00    +0.000 A 
ATOM     11  C   UNL     1      47.821  36.326 180.093  0.00  0.00    +0.000 A 
ENDROOT
BRANCH   4  12
ATOM     12  C   UNL     1      49.389  32.870 182.095  0.00  0.00    +0.000 A 
ATOM     13  C   UNL     1      49.098  32.714 183.440  0.00  0.00    +0.000 A 
ATOM     14  C   UNL     1      49.911  31.760 184.096  0.00  0.00    +0.000 A 
ATOM     15  C   UNL     1      50.626  30.836 183.481  0.00  0.00    +0.000 A 
ATOM     16  C   UNL     1      50.821  31.011 182.139  0.00  0.00    +0.000 A 
ATOM     17  C   UNL     1      50.163  32.003 181.452  0.00  0.00    +0.000 A 
ENDBRANCH   4  12
BRANCH   8  18
ATOM     18  O   UNL     1      45.098  38.677 182.261  0.00  0.00    +0.000 OA
ATOM     19  C   UNL     1      45.559  39.525 183.304  0.00  0.00    +0.000 C 
ENDBRANCH   8  18
BRANCH  10  20
ATOM     20  O   UNL     1      47.715  37.925 178.253  0.00  0.00    +0.000 OA
ATOM     21  C   UNL     1      48.048  39.284 178.012  0.00  0.00    +0.000 C 
ENDBRANCH  10  20
TORSDOF 3
ENDMDL
MODEL 5
REMARK VINA RESULT:    -7.145      0.996      1.142
REMARK INTER + INTRA:          -8.852
REMARK INTER:                  -8.386
REMARK INTRA:                  -0.466
REMARK UNBOUND:                -0.453
REMARK  Name = 
REMARK  5 active torsions:
REMARK  status: ('A' for Active; 'I' for Inactive)
REMARK    1  A    between atoms: C_4  and  C_5
REMARK    2  A    between atoms: C_14  and  O_15
REMARK    3  A    between atoms: O_15  and  C_16
REMARK    4  A    between atoms: C_18  and  O_19
REMARK    5  A    between atoms: O_19  and  C_20
REMARK                            x       y       z     vdW  Elec       q    Type
REMARK                         _______ _______ _______ _____ _____    ______ ____
ROOT
ATOM      1  O   UNL     1      46.112  37.968 181.001  0.00  0.00    +0.000 OA
ATOM      2  C   UNL     1      46.188  37.240 181.993  0.00  0.00    +0.000 A 
ATOM      3  C   UNL     1      45.399  37.382 183.200  0.00  0.00    +0.000 A 
ATOM      4  C   UNL     1      45.563  36.434 184.234  0.00  0.00    +0.000 A 
ATOM      5  O   UNL     1      46.478  35.442 184.195  0.00  0.00    +0.000 OA
ATOM      6  C   UNL     1      47.250  35.256 183.063  0.00  0.00    +0.000 A 
ATOM      7  C   UNL     1      48.123  34.180 183.092  0.00  0.00    +0.000 A 
ATOM      8  C   UNL     1      48.895  33.945 181.971  0.00  0.00    +0.000 A 
ATOM      9  C   UNL     1      48.801  34.763 180.854  0.00  0.00    +0.000 A 
ATOM     10  C   UNL     1      47.930  35.831 180.853  0.00  0.00    +0.000 A 
ATOM     11  C   UNL     1      47.135  36.097 181.974  0.00  0.00    +0.000 A 
ENDROOT
BRANCH   4  12
ATOM     12  C   UNL     1      44.664  36.536 185.454  0.00  0.00    +0.000 A 
ATOM     13  C   UNL     1      44.028  37.737 185.726  0.00  0.00    +0.000 A 
ATOM     14  C   UNL     1      43.462  37.806 187.021  0.00  0.00    +0.000 A 
ATOM     15  C   UNL     1      43.215  36.759 187.788  0.00  0.00    +0.000 A 
ATOM     16  C   UNL     1      43.818  35.586 187.428  0.00  0.00    +0.000 A 
ATOM     17  C   UNL     1      44.500  35.477 186.239  0.00  0.00    +0.000 A 
ENDBRANCH   4  12
BRANCH   8  18
ATOM     18  O   UNL     1      49.799  32.849 181.961  0.00  0.00    +0.000 OA
ATOM     19  C   UNL     1      49.984  32.070 183.134  0.00  0.00    +0.000 C 
ENDBRANCH   8  18
BRANCH  10  20
ATOM     20  O   UNL     1      47.838  36.666 179.708  0.00  0.00    +0.000 OA
ATOM     21  C   UNL     1      47.864  36.094 178.408  0.00  0.00    +0.000 C 
ENDBRANCH  10  20
TORSDOF 3
ENDMDL
MODEL 6
REMARK VINA RESULT:    -7.140      4.391      7.002
REMARK INTER + INTRA:          -8.846
REMARK INTER:                  -8.382
REMARK INTRA:                  -0.463
REMARK UNBOUND:                -0.453
REMARK  Name = 
REMARK  5 active torsions:
REMARK  status: ('A' for Active; 'I' for Inactive)
REMARK    1  A    between atoms: C_4  and  C_5
REMARK    2  A    between atoms: C_14  and  O_15
REMARK    3  A    between atoms: O_15  and  C_16
REMARK    4  A    between atoms: C_18  and  O_19
REMARK    5  A    between atoms: O_19  and  C_20
REMARK                            x       y       z     vdW  Elec       q    Type
REMARK                         _______ _______ _______ _____ _____    ______ ____
ROOT
ATOM      1  O   UNL     1      46.280  37.579 181.276  0.00  0.00    +0.000 OA
ATOM      2  C   UNL     1      45.743  38.435 181.981  0.00  0.00    +0.000 A 
ATOM      3  C   UNL     1      45.514  39.815 181.600  0.00  0.00    +0.000 A 
ATOM      4  C   UNL     1      44.836  40.665 182.502  0.00  0.00    +0.000 A 
ATOM      5  O   UNL     1      44.458  40.285 183.740  0.00  0.00    +0.000 OA
ATOM      6  C   UNL     1      44.644  38.977 184.151  0.00  0.00    +0.000 A 
ATOM      7  C   UNL     1      44.174  38.665 185.417  0.00  0.00    +0.000 A 
ATOM      8  C   UNL     1      44.319  37.363 185.856  0.00  0.00    +0.000 A 
ATOM      9  C   UNL     1      44.918  36.401 185.055  0.00  0.00    +0.000 A 
ATOM     10  C   UNL     1      45.382  36.739 183.802  0.00  0.00    +0.000 A 
ATOM     11  C   UNL     1      45.253  38.051 183.329  0.00  0.00    +0.000 A 
ENDROOT
BRANCH   4  12
ATOM     12  C   UNL     1      44.517  42.081 182.054  0.00  0.00    +0.000 A 
ATOM     13  C   UNL     1      43.854  42.931 182.924  0.00  0.00    +0.000 A 
ATOM     14  C   UNL     1      43.356  44.105 182.312  0.00  0.00    +0.000 A 
ATOM     15  C   UNL     1      43.757  44.568 181.141  0.00  0.00    +0.000 A 
ATOM     16  C   UNL     1      44.466  43.701 180.356  0.00  0.00    +0.000 A 
ATOM     17  C   UNL     1      44.876  42.483 180.840  0.00  0.00    +0.000 A 
ENDBRANCH   4  12
BRANCH   8  18
ATOM     18  O   UNL     1      43.847  37.004 187.146  0.00  0.00    +0.000 OA
ATOM     19  C   UNL     1      43.919  35.653 187.578  0.00  0.00    +0.000 C 
ENDBRANCH   8  18
BRANCH  10  20
ATOM     20  O   UNL     1      45.996  35.752 182.986  0.00  0.00    +0.000 OA
ATOM     21  C   UNL     1      45.378  34.485 182.820  0.00  0.00    +0.000 C 
ENDBRANCH  10  20
TORSDOF 3
ENDMDL
MODEL 7
REMARK VINA RESULT:    -7.058      2.040      3.843
REMARK INTER + INTRA:          -8.750
REMARK INTER:                  -8.279
REMARK INTRA:                  -0.471
REMARK UNBOUND:                -0.453
REMARK  Name = 
REMARK  5 active torsions:
REMARK  status: ('A' for Active; 'I' for Inactive)
REMARK    1  A    between atoms: C_4  and  C_5
REMARK    2  A    between atoms: C_14  and  O_15
REMARK    3  A    between atoms: O_15  and  C_16
REMARK    4  A    between atoms: C_18  and  O_19
REMARK    5  A    between atoms: O_19  and  C_20
REMARK                            x       y       z     vdW  Elec       q    Type
REMARK                         _______ _______ _______ _____ _____    ______ ____
ROOT
ATOM      1  O   UNL     1      46.388  33.372 181.838  0.00  0.00    +0.000 OA
ATOM      2  C   UNL     1      46.065  34.481 182.270  0.00  0.00    +0.000 A 
ATOM      3  C   UNL     1      45.325  34.723 183.492  0.00  0.00    +0.000 A 
ATOM      4  C   UNL     1      45.076  36.058 183.882  0.00  0.00    +0.000 A 
ATOM      5  O   UNL     1      45.420  37.127 183.134  0.00  0.00    +0.000 OA
ATOM      6  C   UNL     1      46.135  36.953 181.963  0.00  0.00    +0.000 A 
ATOM      7  C   UNL     1      46.491  38.111 181.290  0.00  0.00    +0.000 A 
ATOM      8  C   UNL     1      47.228  37.981 180.128  0.00  0.00    +0.000 A 
ATOM      9  C   UNL     1      47.595  36.731 179.650  0.00  0.00    +0.000 A 
ATOM     10  C   UNL     1      47.222  35.594 180.336  0.00  0.00    +0.000 A 
ATOM     11  C   UNL     1      46.474  35.692 181.515  0.00  0.00    +0.000 A 
ENDROOT
BRANCH   4  12
ATOM     12  C   UNL     1      44.385  36.302 185.213  0.00  0.00    +0.000 A 
ATOM     13  C   UNL     1      43.841  37.550 185.472  0.00  0.00    +0.000 A 
ATOM     14  C   UNL     1      43.489  37.752 186.827  0.00  0.00    +0.000 A 
ATOM     15  C   UNL     1      43.332  36.784 187.713  0.00  0.00    +0.000 A 
ATOM     16  C   UNL     1      43.830  35.559 187.369  0.00  0.00    +0.000 A 
ATOM     17  C   UNL     1      44.311  35.320 186.104  0.00  0.00    +0.000 A 
ENDBRANCH   4  12
BRANCH   8  18
ATOM     18  O   UNL     1      47.615  39.145 179.412  0.00  0.00    +0.000 OA
ATOM     19  C   UNL     1      47.191  40.426 179.855  0.00  0.00    +0.000 C 
ENDBRANCH   8  18
BRANCH  10  20
ATOM     20  O   UNL     1      47.599  34.318 179.842  0.00  0.00    +0.000 OA
ATOM     21  C   UNL     1      48.944  34.074 179.457  0.00  0.00    +0.000 C 
ENDBRANCH  10  20
TORSDOF 3
ENDMDL
MODEL 8
REMARK VINA RESULT:    -7.007      2.563      6.082
REMARK INTER + INTRA:          -8.689
REMARK INTER:                  -8.236
REMARK INTRA:                  -0.453
REMARK UNBOUND:                -0.453
REMARK  Name = 
REMARK  5 active torsions:
REMARK  status: ('A' for Active; 'I' for Inactive)
REMARK    1  A    between atoms: C_4  and  C_5
REMARK    2  A    between atoms: C_14  and  O_15
REMARK    3  A    between atoms: O_15  and  C_16
REMARK    4  A    between atoms: C_18  and  O_19
REMARK    5  A    between atoms: O_19  and  C_20
REMARK                            x       y       z     vdW  Elec       q    Type
REMARK                         _______ _______ _______ _____ _____    ______ ____
ROOT
ATOM      1  O   UNL     1      46.396  36.673 184.375  0.00  0.00    +0.000 OA
ATOM      2  C   UNL     1      47.038  36.138 183.469  0.00  0.00    +0.000 A 
ATOM      3  C   UNL     1      47.926  35.003 183.626  0.00  0.00    +0.000 A 
ATOM      4  C   UNL     1      48.553  34.468 182.479  0.00  0.00    +0.000 A 
ATOM      5  O   UNL     1      48.434  35.006 181.247  0.00  0.00    +0.000 OA
ATOM      6  C   UNL     1      47.593  36.084 181.040  0.00  0.00    +0.000 A 
ATOM      7  C   UNL     1      47.492  36.535 179.733  0.00  0.00    +0.000 A 
ATOM      8  C   UNL     1      46.643  37.595 179.480  0.00  0.00    +0.000 A 
ATOM      9  C   UNL     1      45.917  38.189 180.502  0.00  0.00    +0.000 A 
ATOM     10  C   UNL     1      46.039  37.726 181.795  0.00  0.00    +0.000 A 
ATOM     11  C   UNL     1      46.894  36.655 182.084  0.00  0.00    +0.000 A 
ENDROOT
BRANCH   4  12
ATOM     12  C   UNL     1      49.405  33.220 182.640  0.00  0.00    +0.000 A 
ATOM     13  C   UNL     1      50.058  32.701 181.534  0.00  0.00    +0.000 A 
ATOM     14  C   UNL     1      50.573  31.398 181.731  0.00  0.00    +0.000 A 
ATOM     15  C   UNL     1      50.764  30.839 182.913  0.00  0.00    +0.000 A 
ATOM     16  C   UNL     1      50.147  31.438 183.975  0.00  0.00    +0.000 A 
ATOM     17  C   UNL     1      49.511  32.648 183.834  0.00  0.00    +0.000 A 
ENDBRANCH   4  12
BRANCH   8  18
ATOM     18  O   UNL     1      46.510  38.083 178.153  0.00  0.00    +0.000 OA
ATOM     19  C   UNL     1      45.349  37.778 177.396  0.00  0.00    +0.000 C 
ENDBRANCH   8  18
BRANCH  10  20
ATOM     20  O   UNL     1      45.296  38.338 182.838  0.00  0.00    +0.000 OA
ATOM     21  C   UNL     1      45.316  39.749 182.990  0.00  0.00    +0.000 C 
ENDBRANCH  10  20
TORSDOF 3
ENDMDL
MODEL 9
REMARK VINA RESULT:    -6.977      1.573      2.204
REMARK INTER + INTRA:          -8.654
REMARK INTER:                  -8.235
REMARK INTRA:                  -0.419
REMARK UNBOUND:                -0.453
REMARK  Name = 
REMARK  5 active torsions:
REMARK  status: ('A' for Active; 'I' for Inactive)
REMARK    1  A    between atoms: C_4  and  C_5
REMARK    2  A    between atoms: C_14  and  O_15
REMARK    3  A    between atoms: O_15  and  C_16
REMARK    4  A    between atoms: C_18  and  O_19
REMARK    5  A    between atoms: O_19  and  C_20
REMARK                            x       y       z     vdW  Elec       q    Type
REMARK                         _______ _______ _______ _____ _____    ______ ____
ROOT
ATOM      1  O   UNL     1      47.408  35.567 180.139  0.00  0.00    +0.000 OA
ATOM      2  C   UNL     1      47.409  35.560 181.372  0.00  0.00    +0.000 A 
ATOM      3  C   UNL     1      46.666  36.473 182.217  0.00  0.00    +0.000 A 
ATOM      4  C   UNL     1      46.727  36.305 183.618  0.00  0.00    +0.000 A 
ATOM      5  O   UNL     1      47.508  35.385 184.223  0.00  0.00    +0.000 OA
ATOM      6  C   UNL     1      48.230  34.482 183.463  0.00  0.00    +0.000 A 
ATOM      7  C   UNL     1      48.959  33.539 184.170  0.00  0.00    +0.000 A 
ATOM      8  C   UNL     1      49.675  32.603 183.449  0.00  0.00    +0.000 A 
ATOM      9  C   UNL     1      49.665  32.610 182.061  0.00  0.00    +0.000 A 
ATOM     10  C   UNL     1      48.937  33.563 181.382  0.00  0.00    +0.000 A 
ATOM     11  C   UNL     1      48.202  34.527 182.084  0.00  0.00    +0.000 A 
ENDROOT
BRANCH   4  12
ATOM     12  C   UNL     1      45.870  37.207 184.490  0.00  0.00    +0.000 A 
ATOM     13  C   UNL     1      44.766  36.672 185.134  0.00  0.00    +0.000 A 
ATOM     14  C   UNL     1      43.889  37.643 185.671  0.00  0.00    +0.000 A 
ATOM     15  C   UNL     1      44.210  38.906 185.886  0.00  0.00    +0.000 A 
ATOM     16  C   UNL     1      45.349  39.356 185.277  0.00  0.00    +0.000 A 
ATOM     17  C   UNL     1      46.190  38.489 184.622  0.00  0.00    +0.000 A 
ENDBRANCH   4  12
BRANCH   8  18
ATOM     18  O   UNL     1      50.432  31.618 184.137  0.00  0.00    +0.000 OA
ATOM     19  C   UNL     1      50.675  30.357 183.532  0.00  0.00    +0.000 C 
ENDBRANCH   8  18
BRANCH  10  20
ATOM     20  O   UNL     1      48.931  33.568 179.962  0.00  0.00    +0.000 OA
ATOM     21  C   UNL     1      49.106  32.353 179.247  0.00  0.00    +0.000 C 
ENDBRANCH  10  20
TORSDOF 3
ENDMDL
