MODEL 1
REMARK VINA RESULT:    -6.622      0.000      0.000
REMARK INTER + INTRA:          11.489
REMARK INTER:                  -7.792
REMARK INTRA:                  19.281
REMARK UNBOUND:                19.273
REMARK  Name = 
REMARK  5 active torsions:
REMARK  status: ('A' for Active; 'I' for Inactive)
REMARK    1  A    between atoms: C_1  and  O_2
REMARK    2  A    between atoms: O_2  and  C_3
REMARK    3  A    between atoms: C_6  and  O_7
REMARK    4  A    between atoms: O_7  and  C_8
REMARK    5  A    between atoms: C_9  and  C_10
REMARK                            x       y       z     vdW  Elec       q    Type
REMARK                         _______ _______ _______ _____ _____    ______ ____
ROOT
ATOM      1  C   UNL     1      46.941  37.382 184.137  0.00  0.00    +0.000 A 
ATOM      2  C   UNL     1      45.711  36.961 184.757  0.00  0.00    +0.000 A 
ATOM      3  C   UNL     1      45.120  35.697 184.400  0.00  0.00    +0.000 A 
ATOM      4  O   UNL     1      44.035  35.327 184.947  0.00  0.00    +0.000 OA
ATOM      5  C   UNL     1      45.795  34.808 183.368  0.00  0.00    +0.000 A 
ATOM      6  C   UNL     1      45.031  34.216 182.376  0.00  0.00    +0.000 A 
ATOM      7  C   UNL     1      45.706  33.194 181.666  0.00  0.00    +0.000 A 
ATOM      8  C   UNL     1      47.016  33.031 181.654  0.00  0.00    +0.000 A 
ATOM      9  C   UNL     1      47.721  33.696 182.619  0.00  0.00    +0.000 A 
ATOM     10  C   UNL     1      47.106  34.613 183.437  0.00  0.00    +0.000 A 
ATOM     11  O   UNL     1      47.493  38.563 184.471  0.00  0.00    +0.000 OA
ENDROOT
BRANCH   1  16
ATOM     12  C   UNL     1      49.315  34.957 182.592  0.00  0.00    +0.000 A 
ATOM     13  C   UNL     1      48.891  34.885 181.275  0.00  0.00    +0.000 A 
ATOM     14  C   UNL     1      47.912  35.848 180.934  0.00  0.00    +0.000 A 
ATOM     15  C   UNL     1      47.184  36.517 181.809  0.00  0.00    +0.000 A 
ATOM     16  C   UNL     1      47.616  36.492 183.105  0.00  0.00    +0.000 A 
ATOM     17  C   UNL     1      48.651  35.676 183.490  0.00  0.00    +0.000 A 
BRANCH  12  19
ATOM     18  C   UNL     1      51.366  33.761 181.947  0.00  0.00    +0.000 C 
ATOM     19  O   UNL     1      50.563  34.377 182.943  0.00  0.00    +0.000 OA
ENDBRANCH  12  19
BRANCH  15  20
ATOM     20  O   UNL     1      46.013  37.223 181.423  0.00  0.00    +0.000 OA
ATOM     21  C   UNL     1      46.115  38.357 180.577  0.00  0.00    +0.000 C 
ENDBRANCH  15  20
ENDBRANCH   1  16
TORSDOF 3
ENDMDL
MODEL 2
REMARK VINA RESULT:    -6.619      1.828      3.439
REMARK INTER + INTRA:          11.493
REMARK INTER:                  -7.757
REMARK INTRA:                  19.250
REMARK UNBOUND:                19.273
REMARK  Name = 
REMARK  5 active torsions:
REMARK  status: ('A' for Active; 'I' for Inactive)
REMARK    1  A    between atoms: C_1  and  O_2
REMARK    2  A    between atoms: O_2  and  C_3
REMARK    3  A    between atoms: C_6  and  O_7
REMARK    4  A    between atoms: O_7  and  C_8
REMARK    5  A    between atoms: C_9  and  C_10
REMARK                            x       y       z     vdW  Elec       q    Type
REMARK                         _______ _______ _______ _____ _____    ______ ____
ROOT
ATOM      1  C   UNL     1      46.626  36.894 182.200  0.00  0.00    +0.000 A 
ATOM      2  C   UNL     1      47.389  37.377 183.321  0.00  0.00    +0.000 A 
ATOM      3  C   UNL     1      48.399  36.542 183.919  0.00  0.00    +0.000 A 
ATOM      4  O   UNL     1      49.072  36.969 184.907  0.00  0.00    +0.000 OA
ATOM      5  C   UNL     1      48.657  35.149 183.366  0.00  0.00    +0.000 A 
ATOM      6  C   UNL     1      48.797  34.085 184.240  0.00  0.00    +0.000 A 
ATOM      7  C   UNL     1      49.320  32.915 183.641  0.00  0.00    +0.000 A 
ATOM      8  C   UNL     1      49.343  32.687 182.340  0.00  0.00    +0.000 A 
ATOM      9  C   UNL     1      49.130  33.767 181.529  0.00  0.00    +0.000 A 
ATOM     10  C   UNL     1      48.744  34.978 182.053  0.00  0.00    +0.000 A 
ATOM     11  O   UNL     1      45.682  37.675 181.641  0.00  0.00    +0.000 OA
ENDROOT
BRANCH   1  16
ATOM     12  C   UNL     1      47.838  34.156 179.977  0.00  0.00    +0.000 A 
ATOM     13  C   UNL     1      47.360  33.008 180.588  0.00  0.00    +0.000 A 
ATOM     14  C   UNL     1      46.457  33.257 181.648  0.00  0.00    +0.000 A 
ATOM     15  C   UNL     1      46.330  34.417 182.267  0.00  0.00    +0.000 A 
ATOM     16  C   UNL     1      46.884  35.501 181.647  0.00  0.00    +0.000 A 
ATOM     17  C   UNL     1      47.671  35.352 180.531  0.00  0.00    +0.000 A 
BRANCH  12  19
ATOM     18  C   UNL     1      48.721  35.241 177.953  0.00  0.00    +0.000 C 
ATOM     19  O   UNL     1      48.378  34.062 178.667  0.00  0.00    +0.000 OA
ENDBRANCH  12  19
BRANCH  15  20
ATOM     20  O   UNL     1      45.655  34.530 183.513  0.00  0.00    +0.000 OA
ATOM     21  C   UNL     1      44.240  34.630 183.546  0.00  0.00    +0.000 C 
ENDBRANCH  15  20
ENDBRANCH   1  16
TORSDOF 3
ENDMDL
MODEL 3
REMARK VINA RESULT:    -6.581      1.926      4.748
REMARK INTER + INTRA:          11.537
REMARK INTER:                  -7.729
REMARK INTRA:                  19.266
REMARK UNBOUND:                19.273
REMARK  Name = 
REMARK  5 active torsions:
REMARK  status: ('A' for Active; 'I' for Inactive)
REMARK    1  A    between atoms: C_1  and  O_2
REMARK    2  A    between atoms: O_2  and  C_3
REMARK    3  A    between atoms: C_6  and  O_7
REMARK    4  A    between atoms: O_7  and  C_8
REMARK    5  A    between atoms: C_9  and  C_10
REMARK                            x       y       z     vdW  Elec       q    Type
REMARK                         _______ _______ _______ _____ _____    ______ ____
ROOT
ATOM      1  C   UNL     1      46.959  36.138 181.572  0.00  0.00    +0.000 A 
ATOM      2  C   UNL     1      46.200  34.920 181.461  0.00  0.00    +0.000 A 
ATOM      3  C   UNL     1      45.273  34.552 182.500  0.00  0.00    +0.000 A 
ATOM      4  O   UNL     1      44.603  33.477 182.402  0.00  0.00    +0.000 OA
ATOM      5  C   UNL     1      45.096  35.450 183.714  0.00  0.00    +0.000 A 
ATOM      6  C   UNL     1      45.061  34.887 184.978  0.00  0.00    +0.000 A 
ATOM      7  C   UNL     1      44.604  35.769 185.986  0.00  0.00    +0.000 A 
ATOM      8  C   UNL     1      44.554  37.083 185.865  0.00  0.00    +0.000 A 
ATOM      9  C   UNL     1      44.663  37.582 184.596  0.00  0.00    +0.000 A 
ATOM     10  C   UNL     1      44.979  36.761 183.540  0.00  0.00    +0.000 A 
ATOM     11  O   UNL     1      47.826  36.482 180.601  0.00  0.00    +0.000 OA
ENDROOT
BRANCH   1  16
ATOM     12  C   UNL     1      45.866  38.987 183.716  0.00  0.00    +0.000 A 
ATOM     13  C   UNL     1      46.451  38.712 184.941  0.00  0.00    +0.000 A 
ATOM     14  C   UNL     1      47.374  37.641 184.908  0.00  0.00    +0.000 A 
ATOM     15  C   UNL     1      47.439  36.737 183.947  0.00  0.00    +0.000 A 
ATOM     16  C   UNL     1      46.783  37.037 182.786  0.00  0.00    +0.000 A 
ATOM     17  C   UNL     1      45.966  38.138 182.699  0.00  0.00    +0.000 A 
BRANCH  12  19
ATOM     18  C   UNL     1      44.615  40.549 182.285  0.00  0.00    +0.000 C 
ATOM     19  O   UNL     1      45.284  40.265 183.505  0.00  0.00    +0.000 OA
ENDBRANCH  12  19
BRANCH  15  20
ATOM     20  O   UNL     1      48.151  35.519 184.112  0.00  0.00    +0.000 OA
ATOM     21  C   UNL     1      49.556  35.487 183.913  0.00  0.00    +0.000 C 
ENDBRANCH  15  20
ENDBRANCH   1  16
TORSDOF 3
ENDMDL
MODEL 4
REMARK VINA RESULT:    -6.432      1.593      4.945
REMARK INTER + INTRA:          11.713
REMARK INTER:                  -7.560
REMARK INTRA:                  19.273
REMARK UNBOUND:                19.273
REMARK  Name = 
REMARK  5 active torsions:
REMARK  status: ('A' for Active; 'I' for Inactive)
REMARK    1  A    between atoms: C_1  and  O_2
REMARK    2  A    between atoms: O_2  and  C_3
REMARK    3  A    between atoms: C_6  and  O_7
REMARK    4  A    between atoms: O_7  and  C_8
REMARK    5  A    between atoms: C_9  and  C_10
REMARK                            x       y       z     vdW  Elec       q    Type
REMARK                         _______ _______ _______ _____ _____    ______ ____
ROOT
ATOM      1  C   UNL     1      46.922  34.775 181.628  0.00  0.00    +0.000 A 
ATOM      2  C   UNL     1      48.262  34.535 182.098  0.00  0.00    +0.000 A 
ATOM      3  C   UNL     1      48.775  35.277 183.221  0.00  0.00    +0.000 A 
ATOM      4  O   UNL     1      49.957  35.065 183.635  0.00  0.00    +0.000 OA
ATOM      5  C   UNL     1      47.902  36.314 183.909  0.00  0.00    +0.000 A 
ATOM      6  C   UNL     1      48.438  37.549 184.232  0.00  0.00    +0.000 A 
ATOM      7  C   UNL     1      47.637  38.309 185.117  0.00  0.00    +0.000 A 
ATOM      8  C   UNL     1      46.357  38.080 185.351  0.00  0.00    +0.000 A 
ATOM      9  C   UNL     1      45.871  36.868 184.947  0.00  0.00    +0.000 A 
ATOM     10  C   UNL     1      46.639  36.016 184.190  0.00  0.00    +0.000 A 
ATOM     11  O   UNL     1      46.442  34.082 180.579  0.00  0.00    +0.000 OA
ENDROOT
BRANCH   1  16
ATOM     12  C   UNL     1      44.302  36.283 183.812  0.00  0.00    +0.000 A 
ATOM     13  C   UNL     1      44.424  37.641 183.571  0.00  0.00    +0.000 A 
ATOM     14  C   UNL     1      45.287  37.958 182.497  0.00  0.00    +0.000 A 
ATOM     15  C   UNL     1      46.181  37.131 181.985  0.00  0.00    +0.000 A 
ATOM     16  C   UNL     1      46.049  35.812 182.317  0.00  0.00    +0.000 A 
ATOM     17  C   UNL     1      45.138  35.409 183.262  0.00  0.00    +0.000 A 
BRANCH  12  19
ATOM     18  C   UNL     1      42.232  36.735 185.062  0.00  0.00    +0.000 C 
ATOM     19  O   UNL     1      43.173  35.812 184.534  0.00  0.00    +0.000 OA
ENDBRANCH  12  19
BRANCH  15  20
ATOM     20  O   UNL     1      47.226  37.589 181.139  0.00  0.00    +0.000 OA
ATOM     21  C   UNL     1      47.171  38.896 180.589  0.00  0.00    +0.000 C 
ENDBRANCH  15  20
ENDBRANCH   1  16
TORSDOF 3
ENDMDL
