MODEL 1
REMARK VINA RESULT:    -7.864      0.000      0.000
REMARK INTER + INTRA:         -10.500
REMARK INTER:                  -9.825
REMARK INTRA:                  -0.675
REMARK UNBOUND:                -0.337
REMARK  Name = 
REMARK  7 active torsions:
REMARK  status: ('A' for Active; 'I' for Inactive)
REMARK    1  A    between atoms: C_1  and  O_2
REMARK    2  A    between atoms: O_2  and  C_3
REMARK    3  A    between atoms: C_6  and  C_7
REMARK    4  A    between atoms: C_8  and  C_9
REMARK    5  A    between atoms: C_9  and  C_11
REMARK    6  A    between atoms: C_14  and  O_15
REMARK    7  A    between atoms: C_17  and  O_18
REMARK                            x       y       z     vdW  Elec       q    Type
REMARK                         _______ _______ _______ _____ _____    ______ ____
ROOT
ATOM      1  C   UNL     1      34.035  24.231  68.617  0.00  0.00    +0.000 C 
ATOM      2  O   UNL     1      34.252  24.364  67.371  0.00  0.00    +0.000 OA
ENDROOT
BRANCH   1   3
ATOM      3  C   UNL     1      34.111  25.442  69.534  0.00  0.00    +0.000 A 
ATOM      4  C   UNL     1      32.938  26.006  70.008  0.00  0.00    +0.000 A 
ATOM      5  C   UNL     1      33.111  27.282  70.595  0.00  0.00    +0.000 A 
ATOM      6  C   UNL     1      34.270  27.767  71.002  0.00  0.00    +0.000 A 
ATOM      7  C   UNL     1      35.391  27.124  70.554  0.00  0.00    +0.000 A 
ATOM      8  C   UNL     1      35.297  25.942  69.861  0.00  0.00    +0.000 A 
BRANCH   6   9
ATOM      9  O   UNL     1      34.348  28.895  71.860  0.00  0.00    +0.000 OA
ATOM     10  H   UNL     1      35.122  28.995  72.486  0.00  0.00    +0.000 HD
ENDBRANCH   6   9
BRANCH   8  11
ATOM     11  O   UNL     1      36.478  25.247  69.491  0.00  0.00    +0.000 OA
ATOM     12  H   UNL     1      36.467  24.251  69.406  0.00  0.00    +0.000 HD
ENDBRANCH   8  11
ENDBRANCH   1   3
BRANCH   1  14
ATOM     13  C   UNL     1      32.449  22.353  69.045  0.00  0.00    +0.000 C 
ATOM     14  C   UNL     1      33.701  22.864  69.190  0.00  0.00    +0.000 C 
BRANCH  13  18
ATOM     15  C   UNL     1      31.740  18.454  70.640  0.00  0.00    +0.000 A 
ATOM     16  C   UNL     1      32.151  19.460  71.500  0.00  0.00    +0.000 A 
ATOM     17  C   UNL     1      32.144  20.749  70.918  0.00  0.00    +0.000 A 
ATOM     18  C   UNL     1      32.115  20.986  69.619  0.00  0.00    +0.000 A 
ATOM     19  C   UNL     1      31.767  19.934  68.818  0.00  0.00    +0.000 A 
ATOM     20  C   UNL     1      31.628  18.668  69.335  0.00  0.00    +0.000 A 
BRANCH  15  22
ATOM     21  C   UNL     1      30.267  16.486  70.598  0.00  0.00    +0.000 C 
ATOM     22  O   UNL     1      31.359  17.192  71.167  0.00  0.00    +0.000 OA
ENDBRANCH  15  22
ENDBRANCH  13  18
ENDBRANCH   1  14
TORSDOF 6
ENDMDL
MODEL 2
REMARK VINA RESULT:    -7.852      2.285      2.915
REMARK INTER + INTRA:         -10.485
REMARK INTER:                  -9.845
REMARK INTRA:                  -0.640
REMARK UNBOUND:                -0.337
REMARK  Name = 
REMARK  7 active torsions:
REMARK  status: ('A' for Active; 'I' for Inactive)
REMARK    1  A    between atoms: C_1  and  O_2
REMARK    2  A    between atoms: O_2  and  C_3
REMARK    3  A    between atoms: C_6  and  C_7
REMARK    4  A    between atoms: C_8  and  C_9
REMARK    5  A    between atoms: C_9  and  C_11
REMARK    6  A    between atoms: C_14  and  O_15
REMARK    7  A    between atoms: C_17  and  O_18
REMARK                            x       y       z     vdW  Elec       q    Type
REMARK                         _______ _______ _______ _____ _____    ______ ____
ROOT
ATOM      1  C   UNL     1      31.427  25.163  71.302  0.00  0.00    +0.000 C 
ATOM      2  O   UNL     1      30.979  25.246  72.488  0.00  0.00    +0.000 OA
ENDROOT
BRANCH   1   3
ATOM      3  C   UNL     1      31.784  26.426  70.534  0.00  0.00    +0.000 A 
ATOM      4  C   UNL     1      30.950  26.859  69.516  0.00  0.00    +0.000 A 
ATOM      5  C   UNL     1      31.523  27.852  68.688  0.00  0.00    +0.000 A 
ATOM      6  C   UNL     1      32.576  28.581  69.013  0.00  0.00    +0.000 A 
ATOM      7  C   UNL     1      33.321  28.138  70.070  0.00  0.00    +0.000 A 
ATOM      8  C   UNL     1      32.891  27.090  70.847  0.00  0.00    +0.000 A 
BRANCH   6   9
ATOM      9  O   UNL     1      32.915  29.763  68.302  0.00  0.00    +0.000 OA
ATOM     10  H   UNL     1      32.848  29.783  67.305  0.00  0.00    +0.000 HD
ENDBRANCH   6   9
BRANCH   8  11
ATOM     11  O   UNL     1      33.636  26.713  71.995  0.00  0.00    +0.000 OA
ATOM     12  H   UNL     1      34.522  26.262  71.891  0.00  0.00    +0.000 HD
ENDBRANCH   8  11
ENDBRANCH   1   3
BRANCH   1  14
ATOM     13  C   UNL     1      31.456  22.669  71.387  0.00  0.00    +0.000 C 
ATOM     14  C   UNL     1      31.606  23.802  70.650  0.00  0.00    +0.000 C 
BRANCH  13  18
ATOM     15  C   UNL     1      31.740  18.787  69.628  0.00  0.00    +0.000 A 
ATOM     16  C   UNL     1      31.129  19.801  68.908  0.00  0.00    +0.000 A 
ATOM     17  C   UNL     1      31.282  21.085  69.482  0.00  0.00    +0.000 A 
ATOM     18  C   UNL     1      31.635  21.308  70.735  0.00  0.00    +0.000 A 
ATOM     19  C   UNL     1      32.170  20.249  71.414  0.00  0.00    +0.000 A 
ATOM     20  C   UNL     1      32.175  18.988  70.866  0.00  0.00    +0.000 A 
BRANCH  15  22
ATOM     21  C   UNL     1      31.807  16.332  69.750  0.00  0.00    +0.000 C 
ATOM     22  O   UNL     1      31.976  17.531  69.009  0.00  0.00    +0.000 OA
ENDBRANCH  15  22
ENDBRANCH  13  18
ENDBRANCH   1  14
TORSDOF 6
ENDMDL
MODEL 3
REMARK VINA RESULT:    -7.850      2.683      8.188
REMARK INTER + INTRA:         -10.481
REMARK INTER:                 -10.079
REMARK INTRA:                  -0.402
REMARK UNBOUND:                -0.337
REMARK  Name = 
REMARK  7 active torsions:
REMARK  status: ('A' for Active; 'I' for Inactive)
REMARK    1  A    between atoms: C_1  and  O_2
REMARK    2  A    between atoms: O_2  and  C_3
REMARK    3  A    between atoms: C_6  and  C_7
REMARK    4  A    between atoms: C_8  and  C_9
REMARK    5  A    between atoms: C_9  and  C_11
REMARK    6  A    between atoms: C_14  and  O_15
REMARK    7  A    between atoms: C_17  and  O_18
REMARK                            x       y       z     vdW  Elec       q    Type
REMARK                         _______ _______ _______ _____ _____    ______ ____
ROOT
ATOM      1  C   UNL     1      31.201  20.724  67.874  0.00  0.00    +0.000 C 
ATOM      2  O   UNL     1      30.582  20.340  66.833  0.00  0.00    +0.000 OA
ENDROOT
BRANCH   1   3
ATOM      3  C   UNL     1      31.422  19.758  69.028  0.00  0.00    +0.000 A 
ATOM      4  C   UNL     1      31.609  20.260  70.305  0.00  0.00    +0.000 A 
ATOM      5  C   UNL     1      32.096  19.307  71.231  0.00  0.00    +0.000 A 
ATOM      6  C   UNL     1      32.049  17.999  71.052  0.00  0.00    +0.000 A 
ATOM      7  C   UNL     1      31.794  17.566  69.780  0.00  0.00    +0.000 A 
ATOM      8  C   UNL     1      31.439  18.451  68.792  0.00  0.00    +0.000 A 
BRANCH   6   9
ATOM      9  O   UNL     1      32.252  17.090  72.124  0.00  0.00    +0.000 OA
ATOM     10  H   UNL     1      32.966  17.268  72.802  0.00  0.00    +0.000 HD
ENDBRANCH   6   9
BRANCH   8  11
ATOM     11  O   UNL     1      31.087  17.965  67.505  0.00  0.00    +0.000 OA
ATOM     12  H   UNL     1      31.676  18.153  66.720  0.00  0.00    +0.000 HD
ENDBRANCH   8  11
ENDBRANCH   1   3
BRANCH   1  14
ATOM     13  C   UNL     1      30.914  23.191  67.634  0.00  0.00    +0.000 C 
ATOM     14  C   UNL     1      31.722  22.149  67.968  0.00  0.00    +0.000 C 
BRANCH  13  18
ATOM     15  C   UNL     1      32.358  27.211  67.659  0.00  0.00    +0.000 A 
ATOM     16  C   UNL     1      30.989  26.996  67.652  0.00  0.00    +0.000 A 
ATOM     17  C   UNL     1      30.621  25.647  67.865  0.00  0.00    +0.000 A 
ATOM     18  C   UNL     1      31.435  24.616  67.727  0.00  0.00    +0.000 A 
ATOM     19  C   UNL     1      32.771  24.900  67.673  0.00  0.00    +0.000 A 
ATOM     20  C   UNL     1      33.214  26.199  67.594  0.00  0.00    +0.000 A 
BRANCH  15  22
ATOM     21  C   UNL     1      32.442  29.558  66.929  0.00  0.00    +0.000 C 
ATOM     22  O   UNL     1      32.860  28.530  67.814  0.00  0.00    +0.000 OA
ENDBRANCH  15  22
ENDBRANCH  13  18
ENDBRANCH   1  14
TORSDOF 6
ENDMDL
MODEL 4
REMARK VINA RESULT:    -7.810      2.396      8.220
REMARK INTER + INTRA:         -10.430
REMARK INTER:                  -9.713
REMARK INTRA:                  -0.717
REMARK UNBOUND:                -0.337
REMARK  Name = 
REMARK  7 active torsions:
REMARK  status: ('A' for Active; 'I' for Inactive)
REMARK    1  A    between atoms: C_1  and  O_2
REMARK    2  A    between atoms: O_2  and  C_3
REMARK    3  A    between atoms: C_6  and  C_7
REMARK    4  A    between atoms: C_8  and  C_9
REMARK    5  A    between atoms: C_9  and  C_11
REMARK    6  A    between atoms: C_14  and  O_15
REMARK    7  A    between atoms: C_17  and  O_18
REMARK                            x       y       z     vdW  Elec       q    Type
REMARK                         _______ _______ _______ _____ _____    ______ ____
ROOT
ATOM      1  C   UNL     1      31.718  22.771  71.636  0.00  0.00    +0.000 C 
ATOM      2  O   UNL     1      30.972  22.776  72.665  0.00  0.00    +0.000 OA
ENDROOT
BRANCH   1   3
ATOM      3  C   UNL     1      31.767  21.544  70.738  0.00  0.00    +0.000 A 
ATOM      4  C   UNL     1      31.343  21.650  69.424  0.00  0.00    +0.000 A 
ATOM      5  C   UNL     1      31.152  20.404  68.781  0.00  0.00    +0.000 A 
ATOM      6  C   UNL     1      31.650  19.258  69.207  0.00  0.00    +0.000 A 
ATOM      7  C   UNL     1      32.115  19.236  70.493  0.00  0.00    +0.000 A 
ATOM      8  C   UNL     1      32.209  20.392  71.229  0.00  0.00    +0.000 A 
BRANCH   6   9
ATOM      9  O   UNL     1      31.701  18.109  68.375  0.00  0.00    +0.000 OA
ATOM     10  H   UNL     1      32.510  17.932  67.815  0.00  0.00    +0.000 HD
ENDBRANCH   6   9
BRANCH   8  11
ATOM     11  O   UNL     1      32.785  20.356  72.527  0.00  0.00    +0.000 OA
ATOM     12  H   UNL     1      33.776  20.415  72.636  0.00  0.00    +0.000 HD
ENDBRANCH   8  11
ENDBRANCH   1   3
BRANCH   1  14
ATOM     13  C   UNL     1      31.981  25.086  70.741  0.00  0.00    +0.000 C 
ATOM     14  C   UNL     1      32.561  23.990  71.301  0.00  0.00    +0.000 C 
BRANCH  13  18
ATOM     15  C   UNL     1      34.214  28.640  69.950  0.00  0.00    +0.000 A 
ATOM     16  C   UNL     1      34.546  27.879  71.059  0.00  0.00    +0.000 A 
ATOM     17  C   UNL     1      33.898  26.622  71.105  0.00  0.00    +0.000 A 
ATOM     18  C   UNL     1      32.824  26.305  70.406  0.00  0.00    +0.000 A 
ATOM     19  C   UNL     1      32.511  27.134  69.365  0.00  0.00    +0.000 A 
ATOM     20  C   UNL     1      33.184  28.317  69.177  0.00  0.00    +0.000 A 
BRANCH  15  22
ATOM     21  C   UNL     1      36.036  30.207  70.474  0.00  0.00    +0.000 C 
ATOM     22  O   UNL     1      35.032  29.741  69.584  0.00  0.00    +0.000 OA
ENDBRANCH  15  22
ENDBRANCH  13  18
ENDBRANCH   1  14
TORSDOF 6
ENDMDL
MODEL 5
REMARK VINA RESULT:    -7.780      3.046      8.293
REMARK INTER + INTRA:         -10.390
REMARK INTER:                 -10.053
REMARK INTRA:                  -0.337
REMARK UNBOUND:                -0.337
REMARK  Name = 
REMARK  7 active torsions:
REMARK  status: ('A' for Active; 'I' for Inactive)
REMARK    1  A    between atoms: C_1  and  O_2
REMARK    2  A    between atoms: O_2  and  C_3
REMARK    3  A    between atoms: C_6  and  C_7
REMARK    4  A    between atoms: C_8  and  C_9
REMARK    5  A    between atoms: C_9  and  C_11
REMARK    6  A    between atoms: C_14  and  O_15
REMARK    7  A    between atoms: C_17  and  O_18
REMARK                            x       y       z     vdW  Elec       q    Type
REMARK                         _______ _______ _______ _____ _____    ______ ____
ROOT
ATOM      1  C   UNL     1      32.236  20.089  71.681  0.00  0.00    +0.000 C 
ATOM      2  O   UNL     1      32.544  19.762  72.870  0.00  0.00    +0.000 OA
ENDROOT
BRANCH   1   3
ATOM      3  C   UNL     1      31.941  19.011  70.649  0.00  0.00    +0.000 A 
ATOM      4  C   UNL     1      31.750  19.375  69.326  0.00  0.00    +0.000 A 
ATOM      5  C   UNL     1      31.196  18.350  68.523  0.00  0.00    +0.000 A 
ATOM      6  C   UNL     1      31.183  17.070  68.848  0.00  0.00    +0.000 A 
ATOM      7  C   UNL     1      31.447  16.770  70.156  0.00  0.00    +0.000 A 
ATOM      8  C   UNL     1      31.867  17.742  71.032  0.00  0.00    +0.000 A 
BRANCH   6   9
ATOM      9  O   UNL     1      30.912  16.058  67.889  0.00  0.00    +0.000 OA
ATOM     10  H   UNL     1      30.944  15.095  68.156  0.00  0.00    +0.000 HD
ENDBRANCH   6   9
BRANCH   8  11
ATOM     11  O   UNL     1      32.225  17.386  72.359  0.00  0.00    +0.000 OA
ATOM     12  H   UNL     1      32.966  17.869  72.824  0.00  0.00    +0.000 HD
ENDBRANCH   8  11
ENDBRANCH   1   3
BRANCH   1  14
ATOM     13  C   UNL     1      31.065  22.292  71.620  0.00  0.00    +0.000 C 
ATOM     14  C   UNL     1      32.160  21.555  71.290  0.00  0.00    +0.000 C 
BRANCH  13  18
ATOM     15  C   UNL     1      31.064  26.390  70.414  0.00  0.00    +0.000 A 
ATOM     16  C   UNL     1      30.613  25.433  69.519  0.00  0.00    +0.000 A 
ATOM     17  C   UNL     1      30.449  24.148  70.089  0.00  0.00    +0.000 A 
ATOM     18  C   UNL     1      30.990  23.759  71.229  0.00  0.00    +0.000 A 
ATOM     19  C   UNL     1      31.478  24.746  72.039  0.00  0.00    +0.000 A 
ATOM     20  C   UNL     1      31.550  26.047  71.601  0.00  0.00    +0.000 A 
BRANCH  15  22
ATOM     21  C   UNL     1      31.400  28.248  68.839  0.00  0.00    +0.000 C 
ATOM     22  O   UNL     1      30.937  27.767  70.092  0.00  0.00    +0.000 OA
ENDBRANCH  15  22
ENDBRANCH  13  18
ENDBRANCH   1  14
TORSDOF 6
ENDMDL
