REMARK  Name = 
REMARK  7 active torsions:
REMARK  status: ('A' for Active; 'I' for Inactive)
REMARK    1  A    between atoms: C_1  and  O_2
REMARK    2  A    between atoms: O_2  and  C_3
REMARK    3  A    between atoms: C_5  and  C_6
REMARK    4  A    between atoms: C_7  and  C_8
REMARK    5  A    between atoms: C_11  and  O_12
REMARK    6  A    between atoms: C_16  and  O_17
REMARK    7  A    between atoms: O_17  and  C_18
REMARK                            x       y       z     vdW  Elec       q    Type
REMARK                         _______ _______ _______ _____ _____    ______ ____
ROOT
ATOM      1  C   UNL     1       0.794  -0.146  -2.388  0.00  0.00    +0.000 A 
ATOM      2  C   UNL     1      -0.177   0.082  -3.349  0.00  0.00    +0.000 A 
ATOM      3  C   UNL     1       0.343   0.423  -4.620  0.00  0.00    +0.000 A 
ATOM      4  C   UNL     1       1.575   0.849  -4.835  0.00  0.00    +0.000 A 
ATOM      5  C   UNL     1       2.471   0.657  -3.820  0.00  0.00    +0.000 A 
ATOM      6  C   UNL     1       2.059   0.202  -2.591  0.00  0.00    +0.000 A 
ENDROOT
BRANCH   1   8
ATOM      7  C   UNL     1       0.924   0.015   0.063  0.00  0.00    +0.000 C 
ATOM      8  O   UNL     1       0.451  -0.643  -1.103  0.00  0.00    +0.000 OA
ENDBRANCH   1   8
BRANCH   3   9
ATOM      9  C   UNL     1      -0.579   0.291  -5.820  0.00  0.00    +0.000 C 
ATOM     10  C   UNL     1      -1.857  -0.143  -5.652  0.00  0.00    +0.000 C 
BRANCH  10  11
ATOM     11  C   UNL     1      -2.780  -0.276  -6.853  0.00  0.00    +0.000 A 
ATOM     12  C   UNL     1      -4.077   0.204  -6.770  0.00  0.00    +0.000 A 
ATOM     13  C   UNL     1      -4.915  -0.225  -7.826  0.00  0.00    +0.000 A 
ATOM     14  C   UNL     1      -4.483  -0.718  -8.972  0.00  0.00    +0.000 A 
ATOM     15  C   UNL     1      -3.174  -1.111  -9.010  0.00  0.00    +0.000 A 
ATOM     16  C   UNL     1      -2.325  -0.844  -7.963  0.00  0.00    +0.000 A 
BRANCH  14  17
ATOM     17  O   UNL     1      -5.332  -0.834 -10.105  0.00  0.00    +0.000 OA
ATOM     18  H   UNL     1      -4.976  -1.212 -10.960  0.00  0.00    +0.000 HD
ENDBRANCH  14  17
ENDBRANCH  10  11
ENDBRANCH   3   9
BRANCH   5  19
ATOM     19  O   UNL     1       3.846   0.931  -4.040  0.00  0.00    +0.000 OA
ATOM     20  C   UNL     1       4.786   0.735  -2.994  0.00  0.00    +0.000 C 
ENDBRANCH   5  19
TORSDOF 5
