REMARK  Name = 
REMARK  5 active torsions:
REMARK  status: ('A' for Active; 'I' for Inactive)
REMARK    1  A    between atoms: C_1  and  O_2
REMARK    2  A    between atoms: O_2  and  C_3
REMARK    3  A    between atoms: C_5  and  O_6
REMARK    4  A    between atoms: C_8  and  C_9
REMARK    5  A    between atoms: C_10  and  C_11
REMARK                            x       y       z     vdW  Elec       q    Type
REMARK                         _______ _______ _______ _____ _____    ______ ____
ROOT
ATOM      1  C   UNL     1      -0.310   1.345   1.473  0.00  0.00    +0.000 A 
ATOM      2  C   UNL     1      -0.599   2.595   1.967  0.00  0.00    +0.000 A 
ATOM      3  C   UNL     1      -1.544   2.744   2.964  0.00  0.00    +0.000 A 
ATOM      4  C   UNL     1      -2.185   1.644   3.480  0.00  0.00    +0.000 A 
ATOM      5  C   UNL     1      -1.882   0.383   3.015  0.00  0.00    +0.000 A 
ATOM      6  C   UNL     1      -0.931   0.197   2.006  0.00  0.00    +0.000 A 
ENDROOT
BRANCH   1   8
ATOM      7  C   UNL     1       1.077   0.035  -0.054  0.00  0.00    +0.000 C 
ATOM      8  O   UNL     1       0.603   1.263   0.479  0.00  0.00    +0.000 OA
ENDBRANCH   1   8
BRANCH   3   9
ATOM      9  O   UNL     1      -1.853   4.039   3.457  0.00  0.00    +0.000 OA
ATOM     10  H   UNL     1      -2.537   4.149   4.179  0.00  0.00    +0.000 HD
ENDBRANCH   3   9
BRANCH   5  11
ATOM     11  C   UNL     1      -2.592  -0.823   3.606  0.00  0.00    +0.000 C 
ATOM     12  C   UNL     1      -3.518  -0.654   4.588  0.00  0.00    +0.000 C 
BRANCH  12  13
ATOM     13  C   UNL     1      -4.228  -1.861   5.180  0.00  0.00    +0.000 A 
ATOM     14  C   UNL     1      -5.582  -1.845   5.473  0.00  0.00    +0.000 A 
ATOM     15  C   UNL     1      -5.989  -2.875   6.354  0.00  0.00    +0.000 A 
ATOM     16  C   UNL     1      -5.288  -3.965   6.607  0.00  0.00    +0.000 A 
ATOM     17  C   UNL     1      -3.974  -3.944   6.231  0.00  0.00    +0.000 A 
ATOM     18  C   UNL     1      -3.470  -2.908   5.481  0.00  0.00    +0.000 A 
ENDBRANCH  12  13
ENDBRANCH   5  11
TORSDOF 4
