REMARK  Name = 
REMARK  5 active torsions:
REMARK  status: ('A' for Active; 'I' for Inactive)
REMARK    1  A    between atoms: C_1  and  O_2
REMARK    2  A    between atoms: O_2  and  C_3
REMARK    3  A    between atoms: C_6  and  O_7
REMARK    4  A    between atoms: O_7  and  C_8
REMARK    5  A    between atoms: C_9  and  C_10
REMARK                            x       y       z     vdW  Elec       q    Type
REMARK                         _______ _______ _______ _____ _____    ______ ____
ROOT
ATOM      1  C   UNL     1       3.872  -2.899  -3.556  0.00  0.00    +0.000 A 
ATOM      2  C   UNL     1       4.918  -2.245  -2.813  0.00  0.00    +0.000 A 
ATOM      3  C   UNL     1       4.601  -1.514  -1.614  0.00  0.00    +0.000 A 
ATOM      4  O   UNL     1       5.524  -0.937  -0.958  0.00  0.00    +0.000 OA
ATOM      5  C   UNL     1       3.162  -1.431  -1.133  0.00  0.00    +0.000 A 
ATOM      6  C   UNL     1       2.654  -0.212  -0.715  0.00  0.00    +0.000 A 
ATOM      7  C   UNL     1       1.423  -0.310  -0.024  0.00  0.00    +0.000 A 
ATOM      8  C   UNL     1       0.625  -1.361  -0.061  0.00  0.00    +0.000 A 
ATOM      9  C   UNL     1       1.165  -2.518  -0.548  0.00  0.00    +0.000 A 
ATOM     10  C   UNL     1       2.415  -2.529  -1.120  0.00  0.00    +0.000 A 
ATOM     11  O   UNL     1       4.169  -3.583  -4.676  0.00  0.00    +0.000 OA
ENDROOT
BRANCH   1  16
ATOM     12  C   UNL     1       0.906  -2.103  -1.441  0.00  0.00    +0.000 A 
ATOM     13  C   UNL     1      -0.150  -2.659  -2.143  0.00  0.00    +0.000 A 
ATOM     14  C   UNL     1       0.249  -3.469  -3.233  0.00  0.00    +0.000 A 
ATOM     15  C   UNL     1       1.447  -3.440  -3.788  0.00  0.00    +0.000 A 
ATOM     16  C   UNL     1       2.433  -2.816  -3.075  0.00  0.00    +0.000 A 
ATOM     17  C   UNL     1       2.141  -2.115  -1.930  0.00  0.00    +0.000 A 
BRANCH  12  19
ATOM     18  C   UNL     1       1.036  -0.077  -0.052  0.00  0.00    +0.000 C 
ATOM     19  O   UNL     1       0.563  -1.400  -0.256  0.00  0.00    +0.000 OA
ENDBRANCH  12  19
BRANCH  15  20
ATOM     20  O   UNL     1       1.698  -4.026  -5.057  0.00  0.00    +0.000 OA
ATOM     21  C   UNL     1       3.001  -3.973  -5.618  0.00  0.00    +0.000 C 
ENDBRANCH  15  20
ENDBRANCH   1  16
TORSDOF 3
