REMARK  Name = 
REMARK  6 active torsions:
REMARK  status: ('A' for Active; 'I' for Inactive)
REMARK    1  A    between atoms: C_1  and  O_2
REMARK    2  A    between atoms: O_2  and  C_3
REMARK    3  A    between atoms: C_6  and  C_7
REMARK    4  A    between atoms: C_8  and  C_9
REMARK    5  A    between atoms: C_11  and  O_12
REMARK    6  A    between atoms: C_14  and  O_15
REMARK                            x       y       z     vdW  Elec       q    Type
REMARK                         _______ _______ _______ _____ _____    ______ ____
ROOT
ATOM      1  C   UNL     1       1.652  -5.476  -3.381  0.00  0.00    +0.000 C 
ATOM      2  C   UNL     1       0.624  -6.267  -3.790  0.00  0.00    +0.000 C 
ENDROOT
BRANCH   1   6
ATOM      3  C   UNL     1       0.940  -2.341  -0.570  0.00  0.00    +0.000 A 
ATOM      4  C   UNL     1      -0.137  -3.088  -1.020  0.00  0.00    +0.000 A 
ATOM      5  C   UNL     1       0.232  -4.230  -1.769  0.00  0.00    +0.000 A 
ATOM      6  C   UNL     1       1.418  -4.415  -2.319  0.00  0.00    +0.000 A 
ATOM      7  C   UNL     1       2.425  -3.600  -1.881  0.00  0.00    +0.000 A 
ATOM      8  C   UNL     1       2.164  -2.542  -1.043  0.00  0.00    +0.000 A 
BRANCH   3  10
ATOM      9  C   UNL     1       1.070   0.032   0.064  0.00  0.00    +0.000 C 
ATOM     10  O   UNL     1       0.597  -1.283   0.314  0.00  0.00    +0.000 OA
ENDBRANCH   3  10
ENDBRANCH   1   6
BRANCH   2  11
ATOM     11  C   UNL     1      -0.759  -6.090  -3.185  0.00  0.00    +0.000 A 
ATOM     12  C   UNL     1      -1.363  -7.249  -2.727  0.00  0.00    +0.000 A 
ATOM     13  C   UNL     1      -2.712  -7.078  -2.338  0.00  0.00    +0.000 A 
ATOM     14  C   UNL     1      -3.273  -5.912  -2.074  0.00  0.00    +0.000 A 
ATOM     15  C   UNL     1      -2.594  -4.801  -2.492  0.00  0.00    +0.000 A 
ATOM     16  C   UNL     1      -1.323  -4.901  -3.004  0.00  0.00    +0.000 A 
BRANCH  13  17
ATOM     17  O   UNL     1      -3.520  -8.240  -2.225  0.00  0.00    +0.000 OA
ATOM     18  H   UNL     1      -4.479  -8.158  -1.953  0.00  0.00    +0.000 HD
ENDBRANCH  13  17
BRANCH  15  19
ATOM     19  O   UNL     1      -3.212  -3.526  -2.397  0.00  0.00    +0.000 OA
ATOM     20  H   UNL     1      -2.722  -2.709  -2.701  0.00  0.00    +0.000 HD
ENDBRANCH  15  19
ENDBRANCH   2  11
TORSDOF 5
