REMARK  Name = 
REMARK  7 active torsions:
REMARK  status: ('A' for Active; 'I' for Inactive)
REMARK    1  A    between atoms: C_1  and  O_2
REMARK    2  A    between atoms: O_2  and  C_3
REMARK    3  A    between atoms: C_6  and  C_7
REMARK    4  A    between atoms: C_8  and  C_9
REMARK    5  A    between atoms: C_9  and  C_11
REMARK    6  A    between atoms: C_14  and  O_15
REMARK    7  A    between atoms: C_17  and  O_18
REMARK                            x       y       z     vdW  Elec       q    Type
REMARK                         _______ _______ _______ _____ _____    ______ ____
ROOT
ATOM      1  C   UNL     1       1.448  -8.849   0.681  0.00  0.00    +0.000 C 
ATOM      2  O   UNL     1       0.587  -9.759   0.896  0.00  0.00    +0.000 OA
ENDROOT
BRANCH   1   3
ATOM      3  C   UNL     1       2.866  -9.224   0.283  0.00  0.00    +0.000 A 
ATOM      4  C   UNL     1       3.061 -10.197  -0.683  0.00  0.00    +0.000 A 
ATOM      5  C   UNL     1       4.394 -10.664  -0.764  0.00  0.00    +0.000 A 
ATOM      6  C   UNL     1       5.441 -10.032  -0.266  0.00  0.00    +0.000 A 
ATOM      7  C   UNL     1       5.179  -9.035   0.631  0.00  0.00    +0.000 A 
ATOM      8  C   UNL     1       3.892  -8.612   0.862  0.00  0.00    +0.000 A 
BRANCH   6   9
ATOM      9  O   UNL     1       6.768 -10.370  -0.643  0.00  0.00    +0.000 OA
ATOM     10  H   UNL     1       7.542  -9.873  -0.249  0.00  0.00    +0.000 HD
ENDBRANCH   6   9
BRANCH   8  11
ATOM     11  O   UNL     1       3.658  -7.511   1.728  0.00  0.00    +0.000 OA
ATOM     12  H   UNL     1       2.723  -7.200   1.899  0.00  0.00    +0.000 HD
ENDBRANCH   8  11
ENDBRANCH   1   3
BRANCH   1  14
ATOM     13  C   UNL     1       1.980  -6.412   0.589  0.00  0.00    +0.000 C 
ATOM     14  C   UNL     1       1.059  -7.386   0.820  0.00  0.00    +0.000 C 
BRANCH  13  18
ATOM     15  C   UNL     1       0.825  -2.304   0.752  0.00  0.00    +0.000 A 
ATOM     16  C   UNL     1      -0.147  -3.275   0.925  0.00  0.00    +0.000 A 
ATOM     17  C   UNL     1       0.370  -4.584   1.072  0.00  0.00    +0.000 A 
ATOM     18  C   UNL     1       1.592  -4.950   0.729  0.00  0.00    +0.000 A 
ATOM     19  C   UNL     1       2.488  -3.942   0.505  0.00  0.00    +0.000 A 
ATOM     20  C   UNL     1       2.083  -2.629   0.476  0.00  0.00    +0.000 A 
BRANCH  15  22
ATOM     21  C   UNL     1       0.956   0.004  -0.089  0.00  0.00    +0.000 C 
ATOM     22  O   UNL     1       0.482  -0.931   0.869  0.00  0.00    +0.000 OA
ENDBRANCH  15  22
ENDBRANCH  13  18
ENDBRANCH   1  14
TORSDOF 6
