REMARK  Name = 
REMARK  6 active torsions:
REMARK  status: ('A' for Active; 'I' for Inactive)
REMARK    1  A    between atoms: C_1  and  O_2
REMARK    2  A    between atoms: O_2  and  C_3
REMARK    3  A    between atoms: C_5  and  C_6
REMARK    4  A    between atoms: C_7  and  C_8
REMARK    5  A    between atoms: C_15  and  O_16
REMARK    6  A    between atoms: O_16  and  C_17
REMARK                            x       y       z     vdW  Elec       q    Type
REMARK                         _______ _______ _______ _____ _____    ______ ____
ROOT
ATOM      1  C   UNL     1       0.928   1.912   1.661  0.00  0.00    +0.000 A 
ATOM      2  C   UNL     1      -0.010   2.663   2.350  0.00  0.00    +0.000 A 
ATOM      3  C   UNL     1       0.549   3.532   3.316  0.00  0.00    +0.000 A 
ATOM      4  C   UNL     1       1.771   3.422   3.805  0.00  0.00    +0.000 A 
ATOM      5  C   UNL     1       2.631   2.612   3.117  0.00  0.00    +0.000 A 
ATOM      6  C   UNL     1       2.186   1.831   2.078  0.00  0.00    +0.000 A 
ENDROOT
BRANCH   1   8
ATOM      7  C   UNL     1       1.058   0.041   0.070  0.00  0.00    +0.000 C 
ATOM      8  O   UNL     1       0.585   1.336   0.409  0.00  0.00    +0.000 OA
ENDBRANCH   1   8
BRANCH   3   9
ATOM      9  C   UNL     1      -0.317   4.673   3.826  0.00  0.00    +0.000 C 
ATOM     10  C   UNL     1      -1.583   4.830   3.353  0.00  0.00    +0.000 C 
BRANCH  10  11
ATOM     11  C   UNL     1      -2.449   5.970   3.863  0.00  0.00    +0.000 A 
ATOM     12  C   UNL     1      -3.774   5.684   4.146  0.00  0.00    +0.000 A 
ATOM     13  C   UNL     1      -4.593   6.831   4.277  0.00  0.00    +0.000 A 
ATOM     14  C   UNL     1      -4.141   8.055   4.481  0.00  0.00    +0.000 A 
ATOM     15  C   UNL     1      -2.808   8.257   4.250  0.00  0.00    +0.000 A 
ATOM     16  C   UNL     1      -1.968   7.202   3.987  0.00  0.00    +0.000 A 
ENDBRANCH  10  11
ENDBRANCH   3   9
BRANCH   5  17
ATOM     17  O   UNL     1       4.003   2.578   3.481  0.00  0.00    +0.000 OA
ATOM     18  C   UNL     1       4.904   1.740   2.773  0.00  0.00    +0.000 C 
ENDBRANCH   5  17
TORSDOF 4
