REMARK  Name = 
REMARK  3 active torsions:
REMARK  status: ('A' for Active; 'I' for Inactive)
REMARK    1  A    between atoms: C_1  and  O_2
REMARK    2  A    between atoms: O_2  and  C_3
REMARK    3  A    between atoms: C_12  and  C_14
REMARK                            x       y       z     vdW  Elec       q    Type
REMARK                         _______ _______ _______ _____ _____    ______ ____
ROOT
ATOM      1  C   UNL     1       0.785  -1.449   2.003  0.00  0.00    +0.000 A 
ATOM      2  C   UNL     1      -0.153  -2.262   2.603  0.00  0.00    +0.000 A 
ATOM      3  C   UNL     1       0.229  -3.485   3.136  0.00  0.00    +0.000 A 
ATOM      4  C   UNL     1       1.543  -3.907   3.080  0.00  0.00    +0.000 A 
ATOM      5  C   UNL     1       2.467  -3.068   2.477  0.00  0.00    +0.000 A 
ATOM      6  C   UNL     1       2.125  -1.849   1.928  0.00  0.00    +0.000 A 
ATOM      7  C   UNL     1       3.151  -0.987   1.289  0.00  0.00    +0.000 A 
ATOM      8  O   UNL     1       2.807   0.096   0.811  0.00  0.00    +0.000 OA
ATOM      9  C   UNL     1       4.505  -1.502   1.311  0.00  0.00    +0.000 A 
ATOM     10  C   UNL     1       4.750  -2.741   1.944  0.00  0.00    +0.000 A 
ATOM     11  O   UNL     1       3.776  -3.516   2.463  0.00  0.00    +0.000 OA
ENDROOT
BRANCH  10  12
ATOM     12  C   UNL     1       6.188  -3.226   2.045  0.00  0.00    +0.000 A 
ATOM     13  C   UNL     1       6.543  -4.429   1.457  0.00  0.00    +0.000 A 
ATOM     14  C   UNL     1       7.810  -4.912   1.861  0.00  0.00    +0.000 A 
ATOM     15  C   UNL     1       8.743  -4.176   2.436  0.00  0.00    +0.000 A 
ATOM     16  C   UNL     1       8.343  -2.968   2.937  0.00  0.00    +0.000 A 
ATOM     17  C   UNL     1       7.079  -2.487   2.695  0.00  0.00    +0.000 A 
ENDBRANCH  10  12
BRANCH   1  19
ATOM     18  C   UNL     1       0.915  -0.051  -0.017  0.00  0.00    +0.000 C 
ATOM     19  O   UNL     1       0.442  -0.260   1.306  0.00  0.00    +0.000 OA
ENDBRANCH   1  19
TORSDOF 2
