REMARK  Name = 
REMARK  10 active torsions:
REMARK  status: ('A' for Active; 'I' for Inactive)
REMARK    1  A    between atoms: C_2  and  C_3
REMARK    2  A    between atoms: C_2  and  C_14
REMARK    3  A    between atoms: C_3  and  C_4
REMARK    4  A    between atoms: C_4  and  C_5
REMARK    5  A    between atoms: C_5  and  C_6
REMARK    6  A    between atoms: C_6  and  C_7
REMARK    7  A    between atoms: C_10  and  O_11
REMARK    8  A    between atoms: C_14  and  C_15
REMARK    9  A    between atoms: C_15  and  C_16
REMARK   10  A    between atoms: C_19  and  O_20
REMARK                            x       y       z     vdW  Elec       q    Type
REMARK                         _______ _______ _______ _____ _____    ______ ____
ROOT
ATOM      1  O   UNL     1       1.048  -0.081  -0.033  0.00  0.00    +0.000 OA
ATOM      2  C   UNL     1       2.319  -0.081  -0.033  0.00  0.00    +0.000 C 
ENDROOT
BRANCH   2   3
ATOM      3  C   UNL     1       3.079  -0.447   1.232  0.00  0.00    +0.000 C 
BRANCH   3   4
ATOM      4  C   UNL     1       3.953  -1.662   0.964  0.00  0.00    +0.000 C 
BRANCH   4   5
ATOM      5  C   UNL     1       4.941  -1.340  -0.146  0.00  0.00    +0.000 C 
BRANCH   5   6
ATOM      6  C   UNL     1       5.815  -0.171   0.277  0.00  0.00    +0.000 C 
BRANCH   6   7
ATOM      7  C   UNL     1       6.575  -0.537   1.541  0.00  0.00    +0.000 A 
ATOM      8  C   UNL     1       6.617  -1.854   1.944  0.00  0.00    +0.000 A 
ATOM      9  C   UNL     1       7.270  -2.226   3.123  0.00  0.00    +0.000 A 
ATOM     10  C   UNL     1       7.896  -1.208   3.873  0.00  0.00    +0.000 A 
ATOM     11  C   UNL     1       7.821   0.105   3.476  0.00  0.00    +0.000 A 
ATOM     12  C   UNL     1       7.168   0.439   2.305  0.00  0.00    +0.000 A 
BRANCH  10  13
ATOM     13  O   UNL     1       8.570  -1.478   5.013  0.00  0.00    +0.000 OA
ATOM     14  H   UNL     1       8.648  -2.421   5.337  0.00  0.00    +0.000 HD
ENDBRANCH  10  13
ENDBRANCH   6   7
ENDBRANCH   5   6
ENDBRANCH   4   5
ENDBRANCH   3   4
ENDBRANCH   2   3
BRANCH   2  15
ATOM     15  C   UNL     1       3.079   0.285  -1.297  0.00  0.00    +0.000 C 
BRANCH  15  16
ATOM     16  C   UNL     1       2.712  -0.685  -2.408  0.00  0.00    +0.000 C 
BRANCH  16  17
ATOM     17  C   UNL     1       1.218  -0.608  -2.675  0.00  0.00    +0.000 A 
ATOM     18  C   UNL     1       0.603   0.620  -2.789  0.00  0.00    +0.000 A 
ATOM     19  C   UNL     1      -0.768   0.718  -3.046  0.00  0.00    +0.000 A 
ATOM     20  C   UNL     1      -1.492  -0.482  -3.201  0.00  0.00    +0.000 A 
ATOM     21  C   UNL     1      -0.873  -1.701  -3.056  0.00  0.00    +0.000 A 
ATOM     22  C   UNL     1       0.484  -1.762  -2.802  0.00  0.00    +0.000 A 
BRANCH  20  23
ATOM     23  O   UNL     1      -2.816  -0.484  -3.475  0.00  0.00    +0.000 OA
ATOM     24  H   UNL     1      -3.304   0.382  -3.588  0.00  0.00    +0.000 HD
ENDBRANCH  20  23
ENDBRANCH  16  17
ENDBRANCH  15  16
ENDBRANCH   2  15
TORSDOF 10
