REMARK  Name = 
REMARK  10 active torsions:
REMARK  status: ('A' for Active; 'I' for Inactive)
REMARK    1  A    between atoms: C_1  and  O_2
REMARK    2  A    between atoms: O_2  and  C_3
REMARK    3  A    between atoms: C_5  and  C_6
REMARK    4  A    between atoms: C_7  and  C_8
REMARK    5  A    between atoms: C_8  and  C_10
REMARK    6  A    between atoms: C_10  and  C_11
REMARK    7  A    between atoms: C_11  and  C_12
REMARK    8  A    between atoms: C_12  and  C_13
REMARK    9  A    between atoms: C_13  and  C_14
REMARK   10  A    between atoms: C_22  and  O_23
REMARK                            x       y       z     vdW  Elec       q    Type
REMARK                         _______ _______ _______ _____ _____    ______ ____
ROOT
ATOM      1  C   UNL     1      -2.518   4.535   2.476  0.00  0.00    +0.000 C 
ATOM      2  C   UNL     1      -1.740   5.557   2.026  0.00  0.00    +0.000 C 
ENDROOT
BRANCH   1   5
ATOM      3  C   UNL     1      -0.667   1.533   1.120  0.00  0.00    +0.000 A 
ATOM      4  C   UNL     1      -1.004   2.831   1.422  0.00  0.00    +0.000 A 
ATOM      5  C   UNL     1      -2.139   3.097   2.163  0.00  0.00    +0.000 A 
ATOM      6  C   UNL     1      -2.926   2.068   2.618  0.00  0.00    +0.000 A 
ATOM      7  C   UNL     1      -2.583   0.761   2.348  0.00  0.00    +0.000 A 
ATOM      8  C   UNL     1      -1.440   0.456   1.600  0.00  0.00    +0.000 A 
BRANCH   3  10
ATOM      9  C   UNL     1       0.913   0.038   0.033  0.00  0.00    +0.000 C 
ATOM     10  O   UNL     1       0.440   1.334   0.370  0.00  0.00    +0.000 OA
ENDBRANCH   3  10
BRANCH   8  11
ATOM     11  O   UNL     1      -1.073  -0.890   1.335  0.00  0.00    +0.000 OA
ATOM     12  H   UNL     1      -0.253  -1.087   0.798  0.00  0.00    +0.000 HD
ENDBRANCH   8  11
ENDBRANCH   1   5
BRANCH   2  13
ATOM     13  C   UNL     1      -2.120   6.995   2.339  0.00  0.00    +0.000 C 
ATOM     14  O   UNL     1      -1.393   7.950   1.919  0.00  0.00    +0.000 OA
BRANCH  13  15
ATOM     15  C   UNL     1      -3.368   7.292   3.154  0.00  0.00    +0.000 C 
BRANCH  15  16
ATOM     16  C   UNL     1      -4.587   6.739   2.434  0.00  0.00    +0.000 C 
BRANCH  16  17
ATOM     17  C   UNL     1      -4.437   5.236   2.265  0.00  0.00    +0.000 C 
BRANCH  17  18
ATOM     18  C   UNL     1      -4.317   4.582   3.632  0.00  0.00    +0.000 C 
BRANCH  18  19
ATOM     19  C   UNL     1      -5.565   4.879   4.447  0.00  0.00    +0.000 A 
ATOM     20  C   UNL     1      -5.922   6.197   4.682  0.00  0.00    +0.000 A 
ATOM     21  C   UNL     1      -6.902   6.355   5.690  0.00  0.00    +0.000 A 
ATOM     22  C   UNL     1      -7.685   5.388   6.131  0.00  0.00    +0.000 A 
ATOM     23  C   UNL     1      -7.316   4.111   5.808  0.00  0.00    +0.000 A 
ATOM     24  C   UNL     1      -6.285   3.874   4.932  0.00  0.00    +0.000 A 
ENDBRANCH  18  19
ENDBRANCH  17  18
ENDBRANCH  16  17
ENDBRANCH  15  16
ENDBRANCH  13  15
ENDBRANCH   2  13
TORSDOF 9
