REMARK  Name = 
REMARK  5 active torsions:
REMARK  status: ('A' for Active; 'I' for Inactive)
REMARK    1  A    between atoms: C_1  and  O_2
REMARK    2  A    between atoms: O_2  and  C_3
REMARK    3  A    between atoms: C_5  and  O_6
REMARK    4  A    between atoms: O_6  and  C_7
REMARK    5  A    between atoms: C_9  and  C_10
REMARK                            x       y       z     vdW  Elec       q    Type
REMARK                         _______ _______ _______ _____ _____    ______ ____
ROOT
ATOM      1  C   UNL     1       4.107   3.988   1.720  0.00  0.00    +0.000 A 
ATOM      2  C   UNL     1       5.014   2.885   1.541  0.00  0.00    +0.000 A 
ATOM      3  C   UNL     1       4.530   1.630   1.026  0.00  0.00    +0.000 A 
ATOM      4  O   UNL     1       5.331   0.656   0.868  0.00  0.00    +0.000 OA
ATOM      5  C   UNL     1       3.060   1.471   0.671  0.00  0.00    +0.000 A 
ATOM      6  C   UNL     1       2.384   0.330   1.071  0.00  0.00    +0.000 A 
ATOM      7  C   UNL     1       1.127   0.159   0.444  0.00  0.00    +0.000 A 
ATOM      8  C   UNL     1       0.463   1.118  -0.175  0.00  0.00    +0.000 A 
ATOM      9  C   UNL     1       1.170   2.247  -0.483  0.00  0.00    +0.000 A 
ATOM     10  C   UNL     1       2.449   2.429  -0.016  0.00  0.00    +0.000 A 
ATOM     11  O   UNL     1       4.559   5.160   2.201  0.00  0.00    +0.000 OA
ENDROOT
BRANCH   1  16
ATOM     12  C   UNL     1       0.927   2.492   0.474  0.00  0.00    +0.000 A 
ATOM     13  C   UNL     1      -0.005   3.496   0.679  0.00  0.00    +0.000 A 
ATOM     14  C   UNL     1       0.562   4.734   1.061  0.00  0.00    +0.000 A 
ATOM     15  C   UNL     1       1.784   4.883   1.539  0.00  0.00    +0.000 A 
ATOM     16  C   UNL     1       2.637   3.829   1.365  0.00  0.00    +0.000 A 
ATOM     17  C   UNL     1       2.186   2.628   0.874  0.00  0.00    +0.000 A 
BRANCH  12  19
ATOM     18  C   UNL     1       1.057   0.076   0.032  0.00  0.00    +0.000 C 
ATOM     19  O   UNL     1       0.584   1.367  -0.322  0.00  0.00    +0.000 OA
ENDBRANCH  12  19
BRANCH  14  20
ATOM     20  O   UNL     1      -0.239   5.899   0.922  0.00  0.00    +0.000 OA
ATOM     21  C   UNL     1       0.281   7.167   1.292  0.00  0.00    +0.000 C 
ENDBRANCH  14  20
ENDBRANCH   1  16
TORSDOF 3
