REMARK  Name = 
REMARK  4 active torsions:
REMARK  status: ('A' for Active; 'I' for Inactive)
REMARK    1  A    between atoms: C_1  and  S_2
REMARK    2  A    between atoms: S_2  and  C_5
REMARK    3  A    between atoms: C_8  and  C_11
REMARK    4  A    between atoms: C_12  and  C_17
REMARK                            x       y       z     vdW  Elec       q    Type
REMARK                         _______ _______ _______ _____ _____    ______ ____
ROOT
ATOM      1  C   UNL     1       1.706   6.468   2.138  0.00  0.00    +0.000 C 
ATOM      2  C   UNL     1       2.956   6.765   2.513  0.00  0.00    +0.000 C 
ATOM      3  C   UNL     1       2.874   8.077   3.180  0.00  0.00    +0.000 C 
ATOM      4  O   UNL     1       3.798   8.675   3.702  0.00  0.00    +0.000 OA
ATOM      5  O   UNL     1       1.587   8.528   3.129  0.00  0.00    +0.000 OA
ATOM      6  C   UNL     1       0.771   7.559   2.472  0.00  0.00    +0.000 C 
ENDROOT
BRANCH   1  10
ATOM      7  C   UNL     1       0.682   2.872   0.103  0.00  0.00    +0.000 A 
ATOM      8  C   UNL     1       1.187   2.807   1.401  0.00  0.00    +0.000 A 
ATOM      9  C   UNL     1       1.477   3.994   2.078  0.00  0.00    +0.000 A 
ATOM     10  C   UNL     1       1.276   5.242   1.466  0.00  0.00    +0.000 A 
ATOM     11  C   UNL     1       0.755   5.291   0.170  0.00  0.00    +0.000 A 
ATOM     12  C   UNL     1       0.464   4.108  -0.514  0.00  0.00    +0.000 A 
BRANCH   7  14
ATOM     13  C   UNL     1       0.954   0.021   0.033  0.00  0.00    +0.000 C 
ATOM     14  S   UNL     1       0.301   1.412  -0.840  0.00  0.00    +0.000 S 
ATOM     15  O   UNL     1       1.040   1.526  -2.083  0.00  0.00    +0.000 OA
ATOM     16  O   UNL     1      -1.144   1.299  -0.832  0.00  0.00    +0.000 OA
ENDBRANCH   7  14
ENDBRANCH   1  10
BRANCH   2  17
ATOM     17  C   UNL     1       4.152   5.937   2.359  0.00  0.00    +0.000 A 
ATOM     18  C   UNL     1       4.500   5.417   1.101  0.00  0.00    +0.000 A 
ATOM     19  C   UNL     1       5.545   4.503   0.974  0.00  0.00    +0.000 A 
ATOM     20  C   UNL     1       6.269   4.115   2.098  0.00  0.00    +0.000 A 
ATOM     21  C   UNL     1       5.961   4.659   3.345  0.00  0.00    +0.000 A 
ATOM     22  C   UNL     1       4.909   5.569   3.475  0.00  0.00    +0.000 A 
ENDBRANCH   2  17
TORSDOF 3
