MODEL 1
REMARK VINA RESULT:    -7.221      0.000      0.000
REMARK INTER + INTRA:         -10.275
REMARK INTER:                  -9.451
REMARK INTRA:                  -0.824
REMARK UNBOUND:                -0.732
REMARK  Name = 
REMARK  8 active torsions:
REMARK  status: ('A' for Active; 'I' for Inactive)
REMARK    1  A    between atoms: C_1  and  O_2
REMARK    2  A    between atoms: O_2  and  C_3
REMARK    3  A    between atoms: C_6  and  C_7
REMARK    4  A    between atoms: C_8  and  C_9
REMARK    5  A    between atoms: C_9  and  C_11
REMARK    6  A    between atoms: C_14  and  O_15
REMARK    7  A    between atoms: O_15  and  C_16
REMARK    8  A    between atoms: C_18  and  O_19
REMARK                            x       y       z     vdW  Elec       q    Type
REMARK                         _______ _______ _______ _____ _____    ______ ____
ROOT
ATOM      1  C   UNL     1      41.487  23.763 192.305  0.00  0.00    +0.000 C 
ATOM      2  O   UNL     1      40.933  24.893 192.480  0.00  0.00    +0.000 OA
ENDROOT
BRANCH   1   3
ATOM      3  C   UNL     1      42.904  23.527 192.802  0.00  0.00    +0.000 A 
ATOM      4  C   UNL     1      43.878  23.111 191.909  0.00  0.00    +0.000 A 
ATOM      5  C   UNL     1      45.063  22.650 192.527  0.00  0.00    +0.000 A 
ATOM      6  C   UNL     1      45.404  22.901 193.778  0.00  0.00    +0.000 A 
ATOM      7  C   UNL     1      44.413  23.374 194.593  0.00  0.00    +0.000 A 
ATOM      8  C   UNL     1      43.186  23.724 194.086  0.00  0.00    +0.000 A 
BRANCH   6   9
ATOM      9  O   UNL     1      46.726  22.693 194.251  0.00  0.00    +0.000 OA
ATOM     10  C   UNL     1      47.296  21.392 194.213  0.00  0.00    +0.000 C 
ENDBRANCH   6   9
BRANCH   8  11
ATOM     11  O   UNL     1      42.208  24.301 194.939  0.00  0.00    +0.000 OA
ATOM     12  H   UNL     1      42.353  24.316 195.928  0.00  0.00    +0.000 HD
ENDBRANCH   8  11
ENDBRANCH   1   3
BRANCH   1  14
ATOM     13  C   UNL     1      40.765  21.382 192.102  0.00  0.00    +0.000 C 
ATOM     14  C   UNL     1      40.734  22.647 191.600  0.00  0.00    +0.000 C 
BRANCH  13  18
ATOM     15  C   UNL     1      38.614  18.393 189.939  0.00  0.00    +0.000 A 
ATOM     16  C   UNL     1      39.966  18.554 189.684  0.00  0.00    +0.000 A 
ATOM     17  C   UNL     1      40.624  19.408 190.600  0.00  0.00    +0.000 A 
ATOM     18  C   UNL     1      40.012  20.266 191.397  0.00  0.00    +0.000 A 
ATOM     19  C   UNL     1      38.665  20.095 191.554  0.00  0.00    +0.000 A 
ATOM     20  C   UNL     1      37.973  19.188 190.788  0.00  0.00    +0.000 A 
BRANCH  15  22
ATOM     21  C   UNL     1      36.965  17.857 188.195  0.00  0.00    +0.000 C 
ATOM     22  O   UNL     1      37.933  17.433 189.143  0.00  0.00    +0.000 OA
ENDBRANCH  15  22
ENDBRANCH  13  18
ENDBRANCH   1  14
TORSDOF 6
ENDMDL
MODEL 2
REMARK VINA RESULT:    -7.130     12.919     18.267
REMARK INTER + INTRA:         -10.154
REMARK INTER:                  -9.285
REMARK INTRA:                  -0.869
REMARK UNBOUND:                -0.732
REMARK  Name = 
REMARK  8 active torsions:
REMARK  status: ('A' for Active; 'I' for Inactive)
REMARK    1  A    between atoms: C_1  and  O_2
REMARK    2  A    between atoms: O_2  and  C_3
REMARK    3  A    between atoms: C_6  and  C_7
REMARK    4  A    between atoms: C_8  and  C_9
REMARK    5  A    between atoms: C_9  and  C_11
REMARK    6  A    between atoms: C_14  and  O_15
REMARK    7  A    between atoms: O_15  and  C_16
REMARK    8  A    between atoms: C_18  and  O_19
REMARK                            x       y       z     vdW  Elec       q    Type
REMARK                         _______ _______ _______ _____ _____    ______ ____
ROOT
ATOM      1  C   UNL     1      53.406  30.042 196.572  0.00  0.00    +0.000 C 
ATOM      2  O   UNL     1      53.839  29.597 195.462  0.00  0.00    +0.000 OA
ENDROOT
BRANCH   1   3
ATOM      3  C   UNL     1      52.065  29.568 197.108  0.00  0.00    +0.000 A 
ATOM      4  C   UNL     1      51.019  30.470 197.213  0.00  0.00    +0.000 A 
ATOM      5  C   UNL     1      49.931  29.997 197.984  0.00  0.00    +0.000 A 
ATOM      6  C   UNL     1      49.719  28.729 198.285  0.00  0.00    +0.000 A 
ATOM      7  C   UNL     1      50.771  27.877 198.094  0.00  0.00    +0.000 A 
ATOM      8  C   UNL     1      51.918  28.297 197.466  0.00  0.00    +0.000 A 
BRANCH   6   9
ATOM      9  O   UNL     1      48.468  28.275 198.778  0.00  0.00    +0.000 OA
ATOM     10  C   UNL     1      47.984  28.746 200.027  0.00  0.00    +0.000 C 
ENDBRANCH   6   9
BRANCH   8  11
ATOM     11  O   UNL     1      52.956  27.367 197.197  0.00  0.00    +0.000 OA
ATOM     12  H   UNL     1      52.907  26.782 196.388  0.00  0.00    +0.000 HD
ENDBRANCH   8  11
ENDBRANCH   1   3
BRANCH   1  14
ATOM     13  C   UNL     1      54.271  30.972 198.721  0.00  0.00    +0.000 C 
ATOM     14  C   UNL     1      54.229  31.045 197.362  0.00  0.00    +0.000 C 
BRANCH  13  18
ATOM     15  C   UNL     1      56.572  33.937 200.757  0.00  0.00    +0.000 A 
ATOM     16  C   UNL     1      55.191  34.033 200.784  0.00  0.00    +0.000 A 
ATOM     17  C   UNL     1      54.527  32.893 200.273  0.00  0.00    +0.000 A 
ATOM     18  C   UNL     1      55.094  31.975 199.511  0.00  0.00    +0.000 A 
ATOM     19  C   UNL     1      56.460  31.976 199.473  0.00  0.00    +0.000 A 
ATOM     20  C   UNL     1      57.183  32.985 200.061  0.00  0.00    +0.000 A 
BRANCH  15  22
ATOM     21  C   UNL     1      58.093  35.865 200.616  0.00  0.00    +0.000 C 
ATOM     22  O   UNL     1      57.290  34.987 201.390  0.00  0.00    +0.000 OA
ENDBRANCH  15  22
ENDBRANCH  13  18
ENDBRANCH   1  14
TORSDOF 6
ENDMDL
MODEL 3
REMARK VINA RESULT:    -7.079     15.571     17.011
REMARK INTER + INTRA:         -10.087
REMARK INTER:                  -9.561
REMARK INTRA:                  -0.525
REMARK UNBOUND:                -0.732
REMARK  Name = 
REMARK  8 active torsions:
REMARK  status: ('A' for Active; 'I' for Inactive)
REMARK    1  A    between atoms: C_1  and  O_2
REMARK    2  A    between atoms: O_2  and  C_3
REMARK    3  A    between atoms: C_6  and  C_7
REMARK    4  A    between atoms: C_8  and  C_9
REMARK    5  A    between atoms: C_9  and  C_11
REMARK    6  A    between atoms: C_14  and  O_15
REMARK    7  A    between atoms: O_15  and  C_16
REMARK    8  A    between atoms: C_18  and  O_19
REMARK                            x       y       z     vdW  Elec       q    Type
REMARK                         _______ _______ _______ _____ _____    ______ ____
ROOT
ATOM      1  C   UNL     1      47.482  35.584 183.111  0.00  0.00    +0.000 C 
ATOM      2  O   UNL     1      47.646  36.512 182.258  0.00  0.00    +0.000 OA
ENDROOT
BRANCH   1   3
ATOM      3  C   UNL     1      48.480  34.440 183.189  0.00  0.00    +0.000 A 
ATOM      4  C   UNL     1      48.424  33.423 182.250  0.00  0.00    +0.000 A 
ATOM      5  C   UNL     1      49.195  32.287 182.589  0.00  0.00    +0.000 A 
ATOM      6  C   UNL     1      50.160  32.277 183.490  0.00  0.00    +0.000 A 
ATOM      7  C   UNL     1      50.203  33.343 184.346  0.00  0.00    +0.000 A 
ATOM      8  C   UNL     1      49.390  34.435 184.157  0.00  0.00    +0.000 A 
BRANCH   6   9
ATOM      9  O   UNL     1      51.103  31.218 183.567  0.00  0.00    +0.000 OA
ATOM     10  C   UNL     1      51.111  30.202 182.574  0.00  0.00    +0.000 C 
ENDBRANCH   6   9
BRANCH   8  11
ATOM     11  O   UNL     1      49.522  35.566 185.004  0.00  0.00    +0.000 OA
ATOM     12  H   UNL     1      50.125  35.528 185.801  0.00  0.00    +0.000 HD
ENDBRANCH   8  11
ENDBRANCH   1   3
BRANCH   1  14
ATOM     13  C   UNL     1      46.091  36.695 184.860  0.00  0.00    +0.000 C 
ATOM     14  C   UNL     1      46.290  35.618 184.052  0.00  0.00    +0.000 C 
BRANCH  13  18
ATOM     15  C   UNL     1      42.887  36.857 187.679  0.00  0.00    +0.000 A 
ATOM     16  C   UNL     1      43.274  38.025 187.044  0.00  0.00    +0.000 A 
ATOM     17  C   UNL     1      44.184  37.826 185.980  0.00  0.00    +0.000 A 
ATOM     18  C   UNL     1      44.899  36.729 185.802  0.00  0.00    +0.000 A 
ATOM     19  C   UNL     1      44.508  35.627 186.509  0.00  0.00    +0.000 A 
ATOM     20  C   UNL     1      43.534  35.715 187.474  0.00  0.00    +0.000 A 
BRANCH  15  22
ATOM     21  C   UNL     1      42.196  36.964 190.037  0.00  0.00    +0.000 C 
ATOM     22  O   UNL     1      41.864  36.979 188.657  0.00  0.00    +0.000 OA
ENDBRANCH  15  22
ENDBRANCH  13  18
ENDBRANCH   1  14
TORSDOF 6
ENDMDL
MODEL 4
REMARK VINA RESULT:    -6.804      2.015      7.585
REMARK INTER + INTRA:          -9.724
REMARK INTER:                  -8.841
REMARK INTRA:                  -0.883
REMARK UNBOUND:                -0.732
REMARK  Name = 
REMARK  8 active torsions:
REMARK  status: ('A' for Active; 'I' for Inactive)
REMARK    1  A    between atoms: C_1  and  O_2
REMARK    2  A    between atoms: O_2  and  C_3
REMARK    3  A    between atoms: C_6  and  C_7
REMARK    4  A    between atoms: C_8  and  C_9
REMARK    5  A    between atoms: C_9  and  C_11
REMARK    6  A    between atoms: C_14  and  O_15
REMARK    7  A    between atoms: O_15  and  C_16
REMARK    8  A    between atoms: C_18  and  O_19
REMARK                            x       y       z     vdW  Elec       q    Type
REMARK                         _______ _______ _______ _____ _____    ______ ____
ROOT
ATOM      1  C   UNL     1      39.375  22.703 192.994  0.00  0.00    +0.000 C 
ATOM      2  O   UNL     1      38.764  23.816 193.041  0.00  0.00    +0.000 OA
ENDROOT
BRANCH   1   3
ATOM      3  C   UNL     1      38.628  21.443 192.588  0.00  0.00    +0.000 A 
ATOM      4  C   UNL     1      38.446  20.431 193.516  0.00  0.00    +0.000 A 
ATOM      5  C   UNL     1      38.004  19.210 192.954  0.00  0.00    +0.000 A 
ATOM      6  C   UNL     1      37.463  19.089 191.756  0.00  0.00    +0.000 A 
ATOM      7  C   UNL     1      37.619  20.151 190.908  0.00  0.00    +0.000 A 
ATOM      8  C   UNL     1      38.161  21.333 191.349  0.00  0.00    +0.000 A 
BRANCH   6   9
ATOM      9  O   UNL     1      36.756  17.920 191.369  0.00  0.00    +0.000 OA
ATOM     10  C   UNL     1      37.225  17.133 190.283  0.00  0.00    +0.000 C 
ENDBRANCH   6   9
BRANCH   8  11
ATOM     11  O   UNL     1      38.224  22.449 190.473  0.00  0.00    +0.000 OA
ATOM     12  H   UNL     1      38.875  22.453 189.713  0.00  0.00    +0.000 HD
ENDBRANCH   8  11
ENDBRANCH   1   3
BRANCH   1  14
ATOM     13  C   UNL     1      41.717  21.983 192.517  0.00  0.00    +0.000 C 
ATOM     14  C   UNL     1      40.852  22.631 193.344  0.00  0.00    +0.000 C 
BRANCH  13  18
ATOM     15  C   UNL     1      45.831  21.950 193.661  0.00  0.00    +0.000 A 
ATOM     16  C   UNL     1      44.930  21.203 194.400  0.00  0.00    +0.000 A 
ATOM     17  C   UNL     1      43.646  21.107 193.812  0.00  0.00    +0.000 A 
ATOM     18  C   UNL     1      43.194  21.911 192.867  0.00  0.00    +0.000 A 
ATOM     19  C   UNL     1      44.125  22.673 192.220  0.00  0.00    +0.000 A 
ATOM     20  C   UNL     1      45.428  22.717 192.654  0.00  0.00    +0.000 A 
BRANCH  15  22
ATOM     21  C   UNL     1      47.938  20.763 194.112  0.00  0.00    +0.000 C 
ATOM     22  O   UNL     1      47.174  21.959 194.125  0.00  0.00    +0.000 OA
ENDBRANCH  15  22
ENDBRANCH  13  18
ENDBRANCH   1  14
TORSDOF 6
ENDMDL
MODEL 5
REMARK VINA RESULT:    -6.781     13.400     17.326
REMARK INTER + INTRA:          -9.693
REMARK INTER:                  -9.013
REMARK INTRA:                  -0.680
REMARK UNBOUND:                -0.732
REMARK  Name = 
REMARK  8 active torsions:
REMARK  status: ('A' for Active; 'I' for Inactive)
REMARK    1  A    between atoms: C_1  and  O_2
REMARK    2  A    between atoms: O_2  and  C_3
REMARK    3  A    between atoms: C_6  and  C_7
REMARK    4  A    between atoms: C_8  and  C_9
REMARK    5  A    between atoms: C_9  and  C_11
REMARK    6  A    between atoms: C_14  and  O_15
REMARK    7  A    between atoms: O_15  and  C_16
REMARK    8  A    between atoms: C_18  and  O_19
REMARK                            x       y       z     vdW  Elec       q    Type
REMARK                         _______ _______ _______ _____ _____    ______ ____
ROOT
ATOM      1  C   UNL     1      55.122  31.855 198.435  0.00  0.00    +0.000 C 
ATOM      2  O   UNL     1      55.789  31.867 197.353  0.00  0.00    +0.000 OA
ENDROOT
BRANCH   1   3
ATOM      3  C   UNL     1      55.609  32.651 199.635  0.00  0.00    +0.000 A 
ATOM      4  C   UNL     1      54.699  33.389 200.375  0.00  0.00    +0.000 A 
ATOM      5  C   UNL     1      55.298  34.304 201.272  0.00  0.00    +0.000 A 
ATOM      6  C   UNL     1      56.557  34.251 201.668  0.00  0.00    +0.000 A 
ATOM      7  C   UNL     1      57.390  33.451 200.936  0.00  0.00    +0.000 A 
ATOM      8  C   UNL     1      56.898  32.626 199.955  0.00  0.00    +0.000 A 
BRANCH   6   9
ATOM      9  O   UNL     1      57.019  34.984 202.792  0.00  0.00    +0.000 OA
ATOM     10  C   UNL     1      58.210  35.753 202.698  0.00  0.00    +0.000 C 
ENDBRANCH   6   9
BRANCH   8  11
ATOM     11  O   UNL     1      57.773  31.738 199.276  0.00  0.00    +0.000 OA
ATOM     12  H   UNL     1      58.642  32.072 198.912  0.00  0.00    +0.000 HD
ENDBRANCH   8  11
ENDBRANCH   1   3
BRANCH   1  14
ATOM     13  C   UNL     1      53.279  30.526 197.403  0.00  0.00    +0.000 C 
ATOM     14  C   UNL     1      53.840  31.045 198.529  0.00  0.00    +0.000 C 
BRANCH  13  18
ATOM     15  C   UNL     1      49.760  28.150 197.863  0.00  0.00    +0.000 A 
ATOM     16  C   UNL     1      49.853  29.342 198.561  0.00  0.00    +0.000 A 
ATOM     17  C   UNL     1      50.947  30.151 198.173  0.00  0.00    +0.000 A 
ATOM     18  C   UNL     1      51.996  29.717 197.497  0.00  0.00    +0.000 A 
ATOM     19  C   UNL     1      51.865  28.501 196.887  0.00  0.00    +0.000 A 
ATOM     20  C   UNL     1      50.764  27.711 197.113  0.00  0.00    +0.000 A 
BRANCH  15  22
ATOM     21  C   UNL     1      47.456  27.956 198.703  0.00  0.00    +0.000 C 
ATOM     22  O   UNL     1      48.601  27.366 198.106  0.00  0.00    +0.000 OA
ENDBRANCH  15  22
ENDBRANCH  13  18
ENDBRANCH   1  14
TORSDOF 6
ENDMDL
MODEL 6
REMARK VINA RESULT:    -6.767     15.786     17.524
REMARK INTER + INTRA:          -9.675
REMARK INTER:                  -8.939
REMARK INTRA:                  -0.736
REMARK UNBOUND:                -0.732
REMARK  Name = 
REMARK  8 active torsions:
REMARK  status: ('A' for Active; 'I' for Inactive)
REMARK    1  A    between atoms: C_1  and  O_2
REMARK    2  A    between atoms: O_2  and  C_3
REMARK    3  A    between atoms: C_6  and  C_7
REMARK    4  A    between atoms: C_8  and  C_9
REMARK    5  A    between atoms: C_9  and  C_11
REMARK    6  A    between atoms: C_14  and  O_15
REMARK    7  A    between atoms: O_15  and  C_16
REMARK    8  A    between atoms: C_18  and  O_19
REMARK                            x       y       z     vdW  Elec       q    Type
REMARK                         _______ _______ _______ _____ _____    ______ ____
ROOT
ATOM      1  C   UNL     1      46.420  36.568 183.394  0.00  0.00    +0.000 C 
ATOM      2  O   UNL     1      46.497  37.565 182.610  0.00  0.00    +0.000 OA
ENDROOT
BRANCH   1   3
ATOM      3  C   UNL     1      45.408  36.571 184.529  0.00  0.00    +0.000 A 
ATOM      4  C   UNL     1      44.662  35.430 184.777  0.00  0.00    +0.000 A 
ATOM      5  C   UNL     1      43.567  35.640 185.648  0.00  0.00    +0.000 A 
ATOM      6  C   UNL     1      43.434  36.682 186.448  0.00  0.00    +0.000 A 
ATOM      7  C   UNL     1      44.248  37.751 186.193  0.00  0.00    +0.000 A 
ATOM      8  C   UNL     1      45.257  37.666 185.264  0.00  0.00    +0.000 A 
BRANCH   6   9
ATOM      9  O   UNL     1      42.498  36.691 187.516  0.00  0.00    +0.000 OA
ATOM     10  C   UNL     1      42.924  37.021 188.830  0.00  0.00    +0.000 C 
ENDBRANCH   6   9
BRANCH   8  11
ATOM     11  O   UNL     1      46.145  38.760 185.088  0.00  0.00    +0.000 OA
ATOM     12  H   UNL     1      46.799  38.995 185.807  0.00  0.00    +0.000 HD
ENDBRANCH   8  11
ENDBRANCH   1   3
BRANCH   1  14
ATOM     13  C   UNL     1      48.551  35.339 183.812  0.00  0.00    +0.000 C 
ATOM     14  C   UNL     1      47.338  35.373 183.197  0.00  0.00    +0.000 C 
BRANCH  13  18
ATOM     15  C   UNL     1      50.971  31.890 183.112  0.00  0.00    +0.000 A 
ATOM     16  C   UNL     1      51.043  32.945 182.218  0.00  0.00    +0.000 A 
ATOM     17  C   UNL     1      50.377  34.114 182.656  0.00  0.00    +0.000 A 
ATOM     18  C   UNL     1      49.469  34.144 183.616  0.00  0.00    +0.000 A 
ATOM     19  C   UNL     1      49.402  33.043 184.423  0.00  0.00    +0.000 A 
ATOM     20  C   UNL     1      50.123  31.910 184.135  0.00  0.00    +0.000 A 
BRANCH  15  22
ATOM     21  C   UNL     1      51.102  29.557 182.344  0.00  0.00    +0.000 C 
ATOM     22  O   UNL     1      51.743  30.741 182.795  0.00  0.00    +0.000 OA
ENDBRANCH  15  22
ENDBRANCH  13  18
ENDBRANCH   1  14
TORSDOF 6
ENDMDL
MODEL 7
REMARK VINA RESULT:    -6.699     12.864     17.171
REMARK INTER + INTRA:          -9.585
REMARK INTER:                  -8.721
REMARK INTRA:                  -0.864
REMARK UNBOUND:                -0.732
REMARK  Name = 
REMARK  8 active torsions:
REMARK  status: ('A' for Active; 'I' for Inactive)
REMARK    1  A    between atoms: C_1  and  O_2
REMARK    2  A    between atoms: O_2  and  C_3
REMARK    3  A    between atoms: C_6  and  C_7
REMARK    4  A    between atoms: C_8  and  C_9
REMARK    5  A    between atoms: C_9  and  C_11
REMARK    6  A    between atoms: C_14  and  O_15
REMARK    7  A    between atoms: O_15  and  C_16
REMARK    8  A    between atoms: C_18  and  O_19
REMARK                            x       y       z     vdW  Elec       q    Type
REMARK                         _______ _______ _______ _____ _____    ______ ____
ROOT
ATOM      1  C   UNL     1      55.856  29.923 197.561  0.00  0.00    +0.000 C 
ATOM      2  O   UNL     1      56.436  29.662 196.461  0.00  0.00    +0.000 OA
ENDROOT
BRANCH   1   3
ATOM      3  C   UNL     1      56.618  30.627 198.672  0.00  0.00    +0.000 A 
ATOM      4  C   UNL     1      56.952  29.924 199.819  0.00  0.00    +0.000 A 
ATOM      5  C   UNL     1      57.391  30.743 200.885  0.00  0.00    +0.000 A 
ATOM      6  C   UNL     1      57.805  31.990 200.752  0.00  0.00    +0.000 A 
ATOM      7  C   UNL     1      57.503  32.607 199.569  0.00  0.00    +0.000 A 
ATOM      8  C   UNL     1      56.952  31.904 198.526  0.00  0.00    +0.000 A 
BRANCH   6   9
ATOM      9  O   UNL     1      58.525  32.654 201.780  0.00  0.00    +0.000 OA
ATOM     10  C   UNL     1      58.466  34.069 201.888  0.00  0.00    +0.000 C 
ENDBRANCH   6   9
BRANCH   8  11
ATOM     11  O   UNL     1      56.737  32.548 197.279  0.00  0.00    +0.000 OA
ATOM     12  H   UNL     1      56.308  33.451 197.249  0.00  0.00    +0.000 HD
ENDBRANCH   8  11
ENDBRANCH   1   3
BRANCH   1  14
ATOM     13  C   UNL     1      53.597  30.296 198.555  0.00  0.00    +0.000 C 
ATOM     14  C   UNL     1      54.402  29.532 197.766  0.00  0.00    +0.000 C 
BRANCH  13  18
ATOM     15  C   UNL     1      49.555  28.997 199.017  0.00  0.00    +0.000 A 
ATOM     16  C   UNL     1      50.500  28.565 199.931  0.00  0.00    +0.000 A 
ATOM     17  C   UNL     1      51.749  29.222 199.819  0.00  0.00    +0.000 A 
ATOM     18  C   UNL     1      52.143  29.906 198.760  0.00  0.00    +0.000 A 
ATOM     19  C   UNL     1      51.172  30.243 197.859  0.00  0.00    +0.000 A 
ATOM     20  C   UNL     1      49.896  29.747 197.974  0.00  0.00    +0.000 A 
BRANCH  15  22
ATOM     21  C   UNL     1      47.809  27.384 198.384  0.00  0.00    +0.000 C 
ATOM     22  O   UNL     1      48.241  28.481 199.175  0.00  0.00    +0.000 OA
ENDBRANCH  15  22
ENDBRANCH  13  18
ENDBRANCH   1  14
TORSDOF 6
ENDMDL
MODEL 8
REMARK VINA RESULT:    -6.597      1.530      2.293
REMARK INTER + INTRA:          -9.451
REMARK INTER:                  -8.929
REMARK INTRA:                  -0.522
REMARK UNBOUND:                -0.732
REMARK  Name = 
REMARK  8 active torsions:
REMARK  status: ('A' for Active; 'I' for Inactive)
REMARK    1  A    between atoms: C_1  and  O_2
REMARK    2  A    between atoms: O_2  and  C_3
REMARK    3  A    between atoms: C_6  and  C_7
REMARK    4  A    between atoms: C_8  and  C_9
REMARK    5  A    between atoms: C_9  and  C_11
REMARK    6  A    between atoms: C_14  and  O_15
REMARK    7  A    between atoms: O_15  and  C_16
REMARK    8  A    between atoms: C_18  and  O_19
REMARK                            x       y       z     vdW  Elec       q    Type
REMARK                         _______ _______ _______ _____ _____    ______ ____
ROOT
ATOM      1  C   UNL     1      41.880  24.140 192.743  0.00  0.00    +0.000 C 
ATOM      2  O   UNL     1      41.734  25.402 192.702  0.00  0.00    +0.000 OA
ENDROOT
BRANCH   1   3
ATOM      3  C   UNL     1      43.220  23.544 193.143  0.00  0.00    +0.000 A 
ATOM      4  C   UNL     1      43.595  23.549 194.477  0.00  0.00    +0.000 A 
ATOM      5  C   UNL     1      44.959  23.241 194.689  0.00  0.00    +0.000 A 
ATOM      6  C   UNL     1      45.743  22.653 193.803  0.00  0.00    +0.000 A 
ATOM      7  C   UNL     1      45.284  22.621 192.515  0.00  0.00    +0.000 A 
ATOM      8  C   UNL     1      44.009  23.026 192.207  0.00  0.00    +0.000 A 
BRANCH   6   9
ATOM      9  O   UNL     1      46.991  22.085 194.168  0.00  0.00    +0.000 OA
ATOM     10  C   UNL     1      47.188  20.682 194.074  0.00  0.00    +0.000 C 
ENDBRANCH   6   9
BRANCH   8  11
ATOM     11  O   UNL     1      43.528  22.893 190.878  0.00  0.00    +0.000 OA
ATOM     12  H   UNL     1      44.033  23.306 190.120  0.00  0.00    +0.000 HD
ENDBRANCH   8  11
ENDBRANCH   1   3
BRANCH   1  14
ATOM     13  C   UNL     1      40.564  22.040 193.038  0.00  0.00    +0.000 C 
ATOM     14  C   UNL     1      40.717  23.229 192.391  0.00  0.00    +0.000 C 
BRANCH  13  18
ATOM     15  C   UNL     1      37.441  19.294 192.067  0.00  0.00    +0.000 A 
ATOM     16  C   UNL     1      37.741  19.516 193.400  0.00  0.00    +0.000 A 
ATOM     17  C   UNL     1      38.629  20.596 193.617  0.00  0.00    +0.000 A 
ATOM     18  C   UNL     1      39.400  21.128 192.687  0.00  0.00    +0.000 A 
ATOM     19  C   UNL     1      39.095  20.816 191.392  0.00  0.00    +0.000 A 
ATOM     20  C   UNL     1      38.147  19.867 191.098  0.00  0.00    +0.000 A 
BRANCH  15  22
ATOM     21  C   UNL     1      36.719  17.246 190.912  0.00  0.00    +0.000 C 
ATOM     22  O   UNL     1      36.443  18.320 191.798  0.00  0.00    +0.000 OA
ENDBRANCH  15  22
ENDBRANCH  13  18
ENDBRANCH   1  14
TORSDOF 6
ENDMDL
MODEL 9
REMARK VINA RESULT:    -6.455      1.675      7.953
REMARK INTER + INTRA:          -9.263
REMARK INTER:                  -8.530
REMARK INTRA:                  -0.732
REMARK UNBOUND:                -0.732
REMARK  Name = 
REMARK  8 active torsions:
REMARK  status: ('A' for Active; 'I' for Inactive)
REMARK    1  A    between atoms: C_1  and  O_2
REMARK    2  A    between atoms: O_2  and  C_3
REMARK    3  A    between atoms: C_6  and  C_7
REMARK    4  A    between atoms: C_8  and  C_9
REMARK    5  A    between atoms: C_9  and  C_11
REMARK    6  A    between atoms: C_14  and  O_15
REMARK    7  A    between atoms: O_15  and  C_16
REMARK    8  A    between atoms: C_18  and  O_19
REMARK                            x       y       z     vdW  Elec       q    Type
REMARK                         _______ _______ _______ _____ _____    ______ ____
ROOT
ATOM      1  C   UNL     1      40.222  21.564 191.548  0.00  0.00    +0.000 C 
ATOM      2  O   UNL     1      39.649  22.666 191.281  0.00  0.00    +0.000 OA
ENDROOT
BRANCH   1   3
ATOM      3  C   UNL     1      39.663  20.264 190.994  0.00  0.00    +0.000 A 
ATOM      4  C   UNL     1      40.531  19.323 190.461  0.00  0.00    +0.000 A 
ATOM      5  C   UNL     1      39.886  18.303 189.724  0.00  0.00    +0.000 A 
ATOM      6  C   UNL     1      38.599  18.018 189.803  0.00  0.00    +0.000 A 
ATOM      7  C   UNL     1      37.805  18.958 190.402  0.00  0.00    +0.000 A 
ATOM      8  C   UNL     1      38.353  20.050 191.030  0.00  0.00    +0.000 A 
BRANCH   6   9
ATOM      9  O   UNL     1      38.068  16.803 189.297  0.00  0.00    +0.000 OA
ATOM     10  C   UNL     1      36.905  16.821 188.481  0.00  0.00    +0.000 C 
ENDBRANCH   6   9
BRANCH   8  11
ATOM     11  O   UNL     1      37.511  20.959 191.723  0.00  0.00    +0.000 OA
ATOM     12  H   UNL     1      36.759  21.411 191.243  0.00  0.00    +0.000 HD
ENDBRANCH   8  11
ENDBRANCH   1   3
BRANCH   1  14
ATOM     13  C   UNL     1      42.637  22.054 191.947  0.00  0.00    +0.000 C 
ATOM     14  C   UNL     1      41.466  21.546 192.421  0.00  0.00    +0.000 C 
BRANCH  13  18
ATOM     15  C   UNL     1      46.216  21.826 194.267  0.00  0.00    +0.000 A 
ATOM     16  C   UNL     1      46.227  22.568 193.098  0.00  0.00    +0.000 A 
ATOM     17  C   UNL     1      44.946  22.759 192.527  0.00  0.00    +0.000 A 
ATOM     18  C   UNL     1      43.881  22.036 192.820  0.00  0.00    +0.000 A 
ATOM     19  C   UNL     1      43.957  21.271 193.950  0.00  0.00    +0.000 A 
ATOM     20  C   UNL     1      45.139  21.140 194.637  0.00  0.00    +0.000 A 
BRANCH  15  22
ATOM     21  C   UNL     1      48.664  22.056 194.306  0.00  0.00    +0.000 C 
ATOM     22  O   UNL     1      47.450  21.726 194.963  0.00  0.00    +0.000 OA
ENDBRANCH  15  22
ENDBRANCH  13  18
ENDBRANCH   1  14
TORSDOF 6
ENDMDL
