MODEL 1
REMARK VINA RESULT:    -7.270      0.000      0.000
REMARK INTER + INTRA:         -10.145
REMARK INTER:                  -9.450
REMARK INTRA:                  -0.694
REMARK UNBOUND:                -0.750
REMARK  Name = 
REMARK  7 active torsions:
REMARK  status: ('A' for Active; 'I' for Inactive)
REMARK    1  A    between atoms: C_1  and  O_2
REMARK    2  A    between atoms: O_2  and  C_3
REMARK    3  A    between atoms: C_6  and  C_7
REMARK    4  A    between atoms: C_8  and  C_9
REMARK    5  A    between atoms: C_9  and  C_11
REMARK    6  A    between atoms: C_14  and  O_15
REMARK    7  A    between atoms: C_17  and  O_18
REMARK                            x       y       z     vdW  Elec       q    Type
REMARK                         _______ _______ _______ _____ _____    ______ ____
ROOT
ATOM      1  C   UNL     1      42.622  22.453 192.553  0.00  0.00    +0.000 C 
ATOM      2  O   UNL     1      42.257  23.641 192.823  0.00  0.00    +0.000 OA
ENDROOT
BRANCH   1   3
ATOM      3  C   UNL     1      43.904  21.898 193.154  0.00  0.00    +0.000 A 
ATOM      4  C   UNL     1      43.832  20.827 194.030  0.00  0.00    +0.000 A 
ATOM      5  C   UNL     1      45.029  20.591 194.747  0.00  0.00    +0.000 A 
ATOM      6  C   UNL     1      46.213  21.064 194.402  0.00  0.00    +0.000 A 
ATOM      7  C   UNL     1      46.221  22.075 193.482  0.00  0.00    +0.000 A 
ATOM      8  C   UNL     1      45.068  22.450 192.836  0.00  0.00    +0.000 A 
BRANCH   6   9
ATOM      9  O   UNL     1      47.414  20.549 194.957  0.00  0.00    +0.000 OA
ATOM     10  H   UNL     1      48.289  20.989 194.754  0.00  0.00    +0.000 HD
ENDBRANCH   6   9
BRANCH   8  11
ATOM     11  O   UNL     1      45.122  23.437 191.816  0.00  0.00    +0.000 OA
ATOM     12  H   UNL     1      44.295  23.935 191.557  0.00  0.00    +0.000 HD
ENDBRANCH   8  11
ENDBRANCH   1   3
BRANCH   1  14
ATOM     13  C   UNL     1      40.727  20.885 192.131  0.00  0.00    +0.000 C 
ATOM     14  C   UNL     1      41.779  21.589 191.631  0.00  0.00    +0.000 C 
BRANCH  13  18
ATOM     15  C   UNL     1      38.354  18.288 189.709  0.00  0.00    +0.000 A 
ATOM     16  C   UNL     1      37.719  19.096 190.637  0.00  0.00    +0.000 A 
ATOM     17  C   UNL     1      38.564  20.066 191.226  0.00  0.00    +0.000 A 
ATOM     18  C   UNL     1      39.884  20.020 191.209  0.00  0.00    +0.000 A 
ATOM     19  C   UNL     1      40.450  19.153 190.317  0.00  0.00    +0.000 A 
ATOM     20  C   UNL     1      39.678  18.263 189.609  0.00  0.00    +0.000 A 
BRANCH  15  22
ATOM     21  C   UNL     1      36.786  18.182 187.818  0.00  0.00    +0.000 C 
ATOM     22  O   UNL     1      37.580  17.526 188.795  0.00  0.00    +0.000 OA
ENDBRANCH  15  22
ENDBRANCH  13  18
ENDBRANCH   1  14
TORSDOF 6
ENDMDL
MODEL 2
REMARK VINA RESULT:    -7.209     13.725     19.046
REMARK INTER + INTRA:         -10.066
REMARK INTER:                  -9.350
REMARK INTRA:                  -0.716
REMARK UNBOUND:                -0.750
REMARK  Name = 
REMARK  7 active torsions:
REMARK  status: ('A' for Active; 'I' for Inactive)
REMARK    1  A    between atoms: C_1  and  O_2
REMARK    2  A    between atoms: O_2  and  C_3
REMARK    3  A    between atoms: C_6  and  C_7
REMARK    4  A    between atoms: C_8  and  C_9
REMARK    5  A    between atoms: C_9  and  C_11
REMARK    6  A    between atoms: C_14  and  O_15
REMARK    7  A    between atoms: C_17  and  O_18
REMARK                            x       y       z     vdW  Elec       q    Type
REMARK                         _______ _______ _______ _____ _____    ______ ____
ROOT
ATOM      1  C   UNL     1      52.466  30.104 198.163  0.00  0.00    +0.000 C 
ATOM      2  O   UNL     1      52.803  29.540 197.075  0.00  0.00    +0.000 OA
ENDROOT
BRANCH   1   3
ATOM      3  C   UNL     1      51.231  29.631 198.914  0.00  0.00    +0.000 A 
ATOM      4  C   UNL     1      51.370  29.134 200.199  0.00  0.00    +0.000 A 
ATOM      5  C   UNL     1      50.224  28.457 200.680  0.00  0.00    +0.000 A 
ATOM      6  C   UNL     1      49.016  28.569 200.158  0.00  0.00    +0.000 A 
ATOM      7  C   UNL     1      48.938  29.130 198.913  0.00  0.00    +0.000 A 
ATOM      8  C   UNL     1      50.043  29.695 198.324  0.00  0.00    +0.000 A 
BRANCH   6   9
ATOM      9  O   UNL     1      47.858  28.132 200.854  0.00  0.00    +0.000 OA
ATOM     10  H   UNL     1      47.580  28.588 201.699  0.00  0.00    +0.000 HD
ENDBRANCH   6   9
BRANCH   8  11
ATOM     11  O   UNL     1      49.914  30.355 197.073  0.00  0.00    +0.000 OA
ATOM     12  H   UNL     1      49.299  29.989 196.376  0.00  0.00    +0.000 HD
ENDBRANCH   8  11
ENDBRANCH   1   3
BRANCH   1  14
ATOM     13  C   UNL     1      54.522  31.006 199.252  0.00  0.00    +0.000 C 
ATOM     14  C   UNL     1      53.297  31.251 198.714  0.00  0.00    +0.000 C 
BRANCH  13  18
ATOM     15  C   UNL     1      56.852  34.123 201.014  0.00  0.00    +0.000 A 
ATOM     16  C   UNL     1      57.498  32.982 200.564  0.00  0.00    +0.000 A 
ATOM     17  C   UNL     1      56.673  32.118 199.807  0.00  0.00    +0.000 A 
ATOM     18  C   UNL     1      55.353  32.153 199.803  0.00  0.00    +0.000 A 
ATOM     19  C   UNL     1      54.774  33.278 200.323  0.00  0.00    +0.000 A 
ATOM     20  C   UNL     1      55.530  34.230 200.963  0.00  0.00    +0.000 A 
BRANCH  15  22
ATOM     21  C   UNL     1      58.166  36.145 200.532  0.00  0.00    +0.000 C 
ATOM     22  O   UNL     1      57.617  35.229 201.468  0.00  0.00    +0.000 OA
ENDBRANCH  15  22
ENDBRANCH  13  18
ENDBRANCH   1  14
TORSDOF 6
ENDMDL
MODEL 3
REMARK VINA RESULT:    -7.148     12.671     18.022
REMARK INTER + INTRA:          -9.986
REMARK INTER:                  -9.309
REMARK INTRA:                  -0.677
REMARK UNBOUND:                -0.750
REMARK  Name = 
REMARK  7 active torsions:
REMARK  status: ('A' for Active; 'I' for Inactive)
REMARK    1  A    between atoms: C_1  and  O_2
REMARK    2  A    between atoms: O_2  and  C_3
REMARK    3  A    between atoms: C_6  and  C_7
REMARK    4  A    between atoms: C_8  and  C_9
REMARK    5  A    between atoms: C_9  and  C_11
REMARK    6  A    between atoms: C_14  and  O_15
REMARK    7  A    between atoms: C_17  and  O_18
REMARK                            x       y       z     vdW  Elec       q    Type
REMARK                         _______ _______ _______ _____ _____    ______ ____
ROOT
ATOM      1  C   UNL     1      51.747  28.604 198.876  0.00  0.00    +0.000 C 
ATOM      2  O   UNL     1      52.322  27.561 198.433  0.00  0.00    +0.000 OA
ENDROOT
BRANCH   1   3
ATOM      3  C   UNL     1      50.239  28.614 199.074  0.00  0.00    +0.000 A 
ATOM      4  C   UNL     1      49.709  29.207 200.207  0.00  0.00    +0.000 A 
ATOM      5  C   UNL     1      48.346  28.900 200.432  0.00  0.00    +0.000 A 
ATOM      6  C   UNL     1      47.528  28.413 199.517  0.00  0.00    +0.000 A 
ATOM      7  C   UNL     1      48.110  27.902 198.389  0.00  0.00    +0.000 A 
ATOM      8  C   UNL     1      49.457  28.049 198.162  0.00  0.00    +0.000 A 
BRANCH   6   9
ATOM      9  O   UNL     1      46.119  28.421 199.693  0.00  0.00    +0.000 OA
ATOM     10  H   UNL     1      45.577  27.626 199.422  0.00  0.00    +0.000 HD
ENDBRANCH   6   9
BRANCH   8  11
ATOM     11  O   UNL     1      50.018  27.594 196.939  0.00  0.00    +0.000 OA
ATOM     12  H   UNL     1      50.252  26.629 196.825  0.00  0.00    +0.000 HD
ENDBRANCH   8  11
ENDBRANCH   1   3
BRANCH   1  14
ATOM     13  C   UNL     1      53.262  29.901 200.376  0.00  0.00    +0.000 C 
ATOM     14  C   UNL     1      52.565  29.841 199.210  0.00  0.00    +0.000 C 
BRANCH  13  18
ATOM     15  C   UNL     1      55.360  33.480 201.393  0.00  0.00    +0.000 A 
ATOM     16  C   UNL     1      55.143  32.532 202.381  0.00  0.00    +0.000 A 
ATOM     17  C   UNL     1      54.640  31.303 201.894  0.00  0.00    +0.000 A 
ATOM     18  C   UNL     1      54.079  31.138 200.710  0.00  0.00    +0.000 A 
ATOM     19  C   UNL     1      54.274  32.140 199.801  0.00  0.00    +0.000 A 
ATOM     20  C   UNL     1      54.875  33.320 200.168  0.00  0.00    +0.000 A 
BRANCH  15  22
ATOM     21  C   UNL     1      57.369  34.818 200.926  0.00  0.00    +0.000 C 
ATOM     22  O   UNL     1      56.178  34.607 201.669  0.00  0.00    +0.000 OA
ENDBRANCH  15  22
ENDBRANCH  13  18
ENDBRANCH   1  14
TORSDOF 6
ENDMDL
MODEL 4
REMARK VINA RESULT:    -6.933      1.698      2.088
REMARK INTER + INTRA:          -9.709
REMARK INTER:                  -9.012
REMARK INTRA:                  -0.697
REMARK UNBOUND:                -0.750
REMARK  Name = 
REMARK  7 active torsions:
REMARK  status: ('A' for Active; 'I' for Inactive)
REMARK    1  A    between atoms: C_1  and  O_2
REMARK    2  A    between atoms: O_2  and  C_3
REMARK    3  A    between atoms: C_6  and  C_7
REMARK    4  A    between atoms: C_8  and  C_9
REMARK    5  A    between atoms: C_9  and  C_11
REMARK    6  A    between atoms: C_14  and  O_15
REMARK    7  A    between atoms: C_17  and  O_18
REMARK                            x       y       z     vdW  Elec       q    Type
REMARK                         _______ _______ _______ _____ _____    ______ ____
ROOT
ATOM      1  C   UNL     1      43.667  21.748 194.400  0.00  0.00    +0.000 C 
ATOM      2  O   UNL     1      43.137  22.288 195.421  0.00  0.00    +0.000 OA
ENDROOT
BRANCH   1   3
ATOM      3  C   UNL     1      45.182  21.693 194.270  0.00  0.00    +0.000 A 
ATOM      4  C   UNL     1      45.788  20.499 193.918  0.00  0.00    +0.000 A 
ATOM      5  C   UNL     1      47.189  20.487 194.116  0.00  0.00    +0.000 A 
ATOM      6  C   UNL     1      47.933  21.568 194.268  0.00  0.00    +0.000 A 
ATOM      7  C   UNL     1      47.269  22.730 194.549  0.00  0.00    +0.000 A 
ATOM      8  C   UNL     1      45.897  22.788 194.502  0.00  0.00    +0.000 A 
BRANCH   6   9
ATOM      9  O   UNL     1      49.347  21.525 194.146  0.00  0.00    +0.000 OA
ATOM     10  H   UNL     1      49.791  20.723 193.748  0.00  0.00    +0.000 HD
ENDBRANCH   6   9
BRANCH   8  11
ATOM     11  O   UNL     1      45.238  24.029 194.704  0.00  0.00    +0.000 OA
ATOM     12  H   UNL     1      44.798  24.493 193.935  0.00  0.00    +0.000 HD
ENDBRANCH   8  11
ENDBRANCH   1   3
BRANCH   1  14
ATOM     13  C   UNL     1      41.904  20.168 193.611  0.00  0.00    +0.000 C 
ATOM     14  C   UNL     1      42.790  21.155 193.310  0.00  0.00    +0.000 C 
BRANCH  13  18
ATOM     15  C   UNL     1      39.621  18.362 190.485  0.00  0.00    +0.000 A 
ATOM     16  C   UNL     1      39.685  17.727 191.715  0.00  0.00    +0.000 A 
ATOM     17  C   UNL     1      40.277  18.509 192.734  0.00  0.00    +0.000 A 
ATOM     18  C   UNL     1      41.027  19.575 192.521  0.00  0.00    +0.000 A 
ATOM     19  C   UNL     1      40.972  20.116 191.267  0.00  0.00    +0.000 A 
ATOM     20  C   UNL     1      40.304  19.476 190.250  0.00  0.00    +0.000 A 
BRANCH  15  22
ATOM     21  C   UNL     1      37.416  18.327 189.398  0.00  0.00    +0.000 C 
ATOM     22  O   UNL     1      38.754  17.860 189.480  0.00  0.00    +0.000 OA
ENDBRANCH  15  22
ENDBRANCH  13  18
ENDBRANCH   1  14
TORSDOF 6
ENDMDL
MODEL 5
REMARK VINA RESULT:    -6.839     13.881     17.724
REMARK INTER + INTRA:          -9.588
REMARK INTER:                  -8.914
REMARK INTRA:                  -0.673
REMARK UNBOUND:                -0.750
REMARK  Name = 
REMARK  7 active torsions:
REMARK  status: ('A' for Active; 'I' for Inactive)
REMARK    1  A    between atoms: C_1  and  O_2
REMARK    2  A    between atoms: O_2  and  C_3
REMARK    3  A    between atoms: C_6  and  C_7
REMARK    4  A    between atoms: C_8  and  C_9
REMARK    5  A    between atoms: C_9  and  C_11
REMARK    6  A    between atoms: C_14  and  O_15
REMARK    7  A    between atoms: C_17  and  O_18
REMARK                            x       y       z     vdW  Elec       q    Type
REMARK                         _______ _______ _______ _____ _____    ______ ____
ROOT
ATOM      1  C   UNL     1      55.385  31.785 198.801  0.00  0.00    +0.000 C 
ATOM      2  O   UNL     1      56.022  31.813 197.702  0.00  0.00    +0.000 OA
ENDROOT
BRANCH   1   3
ATOM      3  C   UNL     1      55.792  32.708 199.939  0.00  0.00    +0.000 A 
ATOM      4  C   UNL     1      54.810  33.304 200.712  0.00  0.00    +0.000 A 
ATOM      5  C   UNL     1      55.284  34.356 201.532  0.00  0.00    +0.000 A 
ATOM      6  C   UNL     1      56.553  34.549 201.840  0.00  0.00    +0.000 A 
ATOM      7  C   UNL     1      57.474  33.879 201.084  0.00  0.00    +0.000 A 
ATOM      8  C   UNL     1      57.081  32.931 200.170  0.00  0.00    +0.000 A 
BRANCH   6   9
ATOM      9  O   UNL     1      56.941  35.407 202.903  0.00  0.00    +0.000 OA
ATOM     10  H   UNL     1      56.883  35.089 203.849  0.00  0.00    +0.000 HD
ENDBRANCH   6   9
BRANCH   8  11
ATOM     11  O   UNL     1      58.061  32.183 199.466  0.00  0.00    +0.000 OA
ATOM     12  H   UNL     1      58.985  32.548 199.354  0.00  0.00    +0.000 HD
ENDBRANCH   8  11
ENDBRANCH   1   3
BRANCH   1  14
ATOM     13  C   UNL     1      53.017  31.109 198.399  0.00  0.00    +0.000 C 
ATOM     14  C   UNL     1      54.215  30.831 198.978  0.00  0.00    +0.000 C 
BRANCH  13  18
ATOM     15  C   UNL     1      49.628  28.589 199.041  0.00  0.00    +0.000 A 
ATOM     16  C   UNL     1      49.555  29.564 198.060  0.00  0.00    +0.000 A 
ATOM     17  C   UNL     1      50.793  30.190 197.781  0.00  0.00    +0.000 A 
ATOM     18  C   UNL     1      51.847  30.155 198.576  0.00  0.00    +0.000 A 
ATOM     19  C   UNL     1      51.829  29.214 199.568  0.00  0.00    +0.000 A 
ATOM     20  C   UNL     1      50.699  28.471 199.816  0.00  0.00    +0.000 A 
BRANCH  15  22
ATOM     21  C   UNL     1      48.083  26.964 198.030  0.00  0.00    +0.000 C 
ATOM     22  O   UNL     1      48.574  27.647 199.174  0.00  0.00    +0.000 OA
ENDBRANCH  15  22
ENDBRANCH  13  18
ENDBRANCH   1  14
TORSDOF 6
ENDMDL
MODEL 6
REMARK VINA RESULT:    -6.699      2.084      7.680
REMARK INTER + INTRA:          -9.407
REMARK INTER:                  -8.624
REMARK INTRA:                  -0.783
REMARK UNBOUND:                -0.750
REMARK  Name = 
REMARK  7 active torsions:
REMARK  status: ('A' for Active; 'I' for Inactive)
REMARK    1  A    between atoms: C_1  and  O_2
REMARK    2  A    between atoms: O_2  and  C_3
REMARK    3  A    between atoms: C_6  and  C_7
REMARK    4  A    between atoms: C_8  and  C_9
REMARK    5  A    between atoms: C_9  and  C_11
REMARK    6  A    between atoms: C_14  and  O_15
REMARK    7  A    between atoms: C_17  and  O_18
REMARK                            x       y       z     vdW  Elec       q    Type
REMARK                         _______ _______ _______ _____ _____    ______ ____
ROOT
ATOM      1  C   UNL     1      39.238  22.460 192.898  0.00  0.00    +0.000 C 
ATOM      2  O   UNL     1      38.684  23.602 192.957  0.00  0.00    +0.000 OA
ENDROOT
BRANCH   1   3
ATOM      3  C   UNL     1      38.444  21.254 192.422  0.00  0.00    +0.000 A 
ATOM      4  C   UNL     1      38.288  20.169 193.269  0.00  0.00    +0.000 A 
ATOM      5  C   UNL     1      37.800  19.006 192.628  0.00  0.00    +0.000 A 
ATOM      6  C   UNL     1      37.201  18.996 191.451  0.00  0.00    +0.000 A 
ATOM      7  C   UNL     1      37.335  20.123 190.689  0.00  0.00    +0.000 A 
ATOM      8  C   UNL     1      37.918  21.256 191.203  0.00  0.00    +0.000 A 
BRANCH   6   9
ATOM      9  O   UNL     1      36.456  17.874 191.001  0.00  0.00    +0.000 OA
ATOM     10  H   UNL     1      36.575  17.536 190.068  0.00  0.00    +0.000 HD
ENDBRANCH   6   9
BRANCH   8  11
ATOM     11  O   UNL     1      37.959  22.442 190.423  0.00  0.00    +0.000 OA
ATOM     12  H   UNL     1      37.113  22.930 190.209  0.00  0.00    +0.000 HD
ENDBRANCH   8  11
ENDBRANCH   1   3
BRANCH   1  14
ATOM     13  C   UNL     1      41.663  22.242 192.349  0.00  0.00    +0.000 C 
ATOM     14  C   UNL     1      40.694  22.299 193.302  0.00  0.00    +0.000 C 
BRANCH  13  18
ATOM     15  C   UNL     1      45.718  21.947 193.660  0.00  0.00    +0.000 A 
ATOM     16  C   UNL     1      44.756  21.175 194.291  0.00  0.00    +0.000 A 
ATOM     17  C   UNL     1      43.499  21.182 193.643  0.00  0.00    +0.000 A 
ATOM     18  C   UNL     1      43.119  22.081 192.753  0.00  0.00    +0.000 A 
ATOM     19  C   UNL     1      44.107  22.859 192.216  0.00  0.00    +0.000 A 
ATOM     20  C   UNL     1      45.389  22.813 192.709  0.00  0.00    +0.000 A 
BRANCH  15  22
ATOM     21  C   UNL     1      47.634  20.450 194.024  0.00  0.00    +0.000 C 
ATOM     22  O   UNL     1      47.089  21.760 193.977  0.00  0.00    +0.000 OA
ENDBRANCH  15  22
ENDBRANCH  13  18
ENDBRANCH   1  14
TORSDOF 6
ENDMDL
MODEL 7
REMARK VINA RESULT:    -6.573      1.747      2.368
REMARK INTER + INTRA:          -9.245
REMARK INTER:                  -8.639
REMARK INTRA:                  -0.606
REMARK UNBOUND:                -0.750
REMARK  Name = 
REMARK  7 active torsions:
REMARK  status: ('A' for Active; 'I' for Inactive)
REMARK    1  A    between atoms: C_1  and  O_2
REMARK    2  A    between atoms: O_2  and  C_3
REMARK    3  A    between atoms: C_6  and  C_7
REMARK    4  A    between atoms: C_8  and  C_9
REMARK    5  A    between atoms: C_9  and  C_11
REMARK    6  A    between atoms: C_14  and  O_15
REMARK    7  A    between atoms: C_17  and  O_18
REMARK                            x       y       z     vdW  Elec       q    Type
REMARK                         _______ _______ _______ _____ _____    ______ ____
ROOT
ATOM      1  C   UNL     1      42.635  20.025 194.396  0.00  0.00    +0.000 C 
ATOM      2  O   UNL     1      42.415  19.344 195.446  0.00  0.00    +0.000 OA
ENDROOT
BRANCH   1   3
ATOM      3  C   UNL     1      43.875  20.901 194.304  0.00  0.00    +0.000 A 
ATOM      4  C   UNL     1      43.750  22.206 193.858  0.00  0.00    +0.000 A 
ATOM      5  C   UNL     1      44.982  22.822 193.532  0.00  0.00    +0.000 A 
ATOM      6  C   UNL     1      46.163  22.386 193.930  0.00  0.00    +0.000 A 
ATOM      7  C   UNL     1      46.209  21.112 194.425  0.00  0.00    +0.000 A 
ATOM      8  C   UNL     1      45.056  20.400 194.647  0.00  0.00    +0.000 A 
BRANCH   6   9
ATOM      9  O   UNL     1      47.325  23.199 193.849  0.00  0.00    +0.000 OA
ATOM     10  H   UNL     1      48.232  22.786 193.933  0.00  0.00    +0.000 HD
ENDBRANCH   6   9
BRANCH   8  11
ATOM     11  O   UNL     1      45.126  19.117 195.250  0.00  0.00    +0.000 OA
ATOM     12  H   UNL     1      45.543  19.010 196.152  0.00  0.00    +0.000 HD
ENDBRANCH   8  11
ENDBRANCH   1   3
BRANCH   1  14
ATOM     13  C   UNL     1      41.065  18.787 192.903  0.00  0.00    +0.000 C 
ATOM     14  C   UNL     1      41.660  19.965 193.232  0.00  0.00    +0.000 C 
BRANCH  13  18
ATOM     15  C   UNL     1      38.268  18.397 189.698  0.00  0.00    +0.000 A 
ATOM     16  C   UNL     1      37.803  18.788 190.943  0.00  0.00    +0.000 A 
ATOM     17  C   UNL     1      38.829  19.097 191.867  0.00  0.00    +0.000 A 
ATOM     18  C   UNL     1      40.090  18.727 191.739  0.00  0.00    +0.000 A 
ATOM     19  C   UNL     1      40.471  18.287 190.502  0.00  0.00    +0.000 A 
ATOM     20  C   UNL     1      39.544  18.085 189.507  0.00  0.00    +0.000 A 
BRANCH  15  22
ATOM     21  C   UNL     1      36.718  17.208 188.204  0.00  0.00    +0.000 C 
ATOM     22  O   UNL     1      37.385  18.402 188.586  0.00  0.00    +0.000 OA
ENDBRANCH  15  22
ENDBRANCH  13  18
ENDBRANCH   1  14
TORSDOF 6
ENDMDL
MODEL 8
REMARK VINA RESULT:    -6.520     12.947     17.005
REMARK INTER + INTRA:          -9.175
REMARK INTER:                  -8.352
REMARK INTRA:                  -0.823
REMARK UNBOUND:                -0.750
REMARK  Name = 
REMARK  7 active torsions:
REMARK  status: ('A' for Active; 'I' for Inactive)
REMARK    1  A    between atoms: C_1  and  O_2
REMARK    2  A    between atoms: O_2  and  C_3
REMARK    3  A    between atoms: C_6  and  C_7
REMARK    4  A    between atoms: C_8  and  C_9
REMARK    5  A    between atoms: C_9  and  C_11
REMARK    6  A    between atoms: C_14  and  O_15
REMARK    7  A    between atoms: C_17  and  O_18
REMARK                            x       y       z     vdW  Elec       q    Type
REMARK                         _______ _______ _______ _____ _____    ______ ____
ROOT
ATOM      1  C   UNL     1      55.643  29.659 197.407  0.00  0.00    +0.000 C 
ATOM      2  O   UNL     1      56.151  29.273 196.307  0.00  0.00    +0.000 OA
ENDROOT
BRANCH   1   3
ATOM      3  C   UNL     1      56.468  30.496 198.373  0.00  0.00    +0.000 A 
ATOM      4  C   UNL     1      56.937  29.917 199.540  0.00  0.00    +0.000 A 
ATOM      5  C   UNL     1      57.425  30.848 200.487  0.00  0.00    +0.000 A 
ATOM      6  C   UNL     1      57.758  32.095 200.207  0.00  0.00    +0.000 A 
ATOM      7  C   UNL     1      57.322  32.588 199.008  0.00  0.00    +0.000 A 
ATOM      8  C   UNL     1      56.719  31.768 198.085  0.00  0.00    +0.000 A 
BRANCH   6   9
ATOM      9  O   UNL     1      58.529  32.881 201.103  0.00  0.00    +0.000 OA
ATOM     10  H   UNL     1      59.417  32.550 201.421  0.00  0.00    +0.000 HD
ENDBRANCH   6   9
BRANCH   8  11
ATOM     11  O   UNL     1      56.362  32.285 196.812  0.00  0.00    +0.000 OA
ATOM     12  H   UNL     1      56.813  31.943 195.988  0.00  0.00    +0.000 HD
ENDBRANCH   8  11
ENDBRANCH   1   3
BRANCH   1  14
ATOM     13  C   UNL     1      53.461  30.118 198.527  0.00  0.00    +0.000 C 
ATOM     14  C   UNL     1      54.212  29.286 197.757  0.00  0.00    +0.000 C 
BRANCH  13  18
ATOM     15  C   UNL     1      49.475  28.858 199.405  0.00  0.00    +0.000 A 
ATOM     16  C   UNL     1      50.495  28.484 200.264  0.00  0.00    +0.000 A 
ATOM     17  C   UNL     1      51.727  29.130 200.006  0.00  0.00    +0.000 A 
ATOM     18  C   UNL     1      52.030  29.744 198.877  0.00  0.00    +0.000 A 
ATOM     19  C   UNL     1      50.986  30.026 198.040  0.00  0.00    +0.000 A 
ATOM     20  C   UNL     1      49.726  29.539 198.294  0.00  0.00    +0.000 A 
BRANCH  15  22
ATOM     21  C   UNL     1      47.216  28.135 198.756  0.00  0.00    +0.000 C 
ATOM     22  O   UNL     1      48.127  28.577 199.751  0.00  0.00    +0.000 OA
ENDBRANCH  15  22
ENDBRANCH  13  18
ENDBRANCH   1  14
TORSDOF 6
ENDMDL
MODEL 9
REMARK VINA RESULT:    -6.515     13.522     18.985
REMARK INTER + INTRA:          -9.169
REMARK INTER:                  -8.419
REMARK INTRA:                  -0.750
REMARK UNBOUND:                -0.750
REMARK  Name = 
REMARK  7 active torsions:
REMARK  status: ('A' for Active; 'I' for Inactive)
REMARK    1  A    between atoms: C_1  and  O_2
REMARK    2  A    between atoms: O_2  and  C_3
REMARK    3  A    between atoms: C_6  and  C_7
REMARK    4  A    between atoms: C_8  and  C_9
REMARK    5  A    between atoms: C_9  and  C_11
REMARK    6  A    between atoms: C_14  and  O_15
REMARK    7  A    between atoms: C_17  and  O_18
REMARK                            x       y       z     vdW  Elec       q    Type
REMARK                         _______ _______ _______ _____ _____    ______ ____
ROOT
ATOM      1  C   UNL     1      52.940  28.326 200.541  0.00  0.00    +0.000 C 
ATOM      2  O   UNL     1      53.311  27.345 201.258  0.00  0.00    +0.000 OA
ENDROOT
BRANCH   1   3
ATOM      3  C   UNL     1      51.613  28.268 199.801  0.00  0.00    +0.000 A 
ATOM      4  C   UNL     1      51.611  28.118 198.424  0.00  0.00    +0.000 A 
ATOM      5  C   UNL     1      50.357  28.374 197.821  0.00  0.00    +0.000 A 
ATOM      6  C   UNL     1      49.206  28.398 198.468  0.00  0.00    +0.000 A 
ATOM      7  C   UNL     1      49.275  28.478 199.832  0.00  0.00    +0.000 A 
ATOM      8  C   UNL     1      50.479  28.367 200.485  0.00  0.00    +0.000 A 
BRANCH   6   9
ATOM      9  O   UNL     1      47.963  28.341 197.785  0.00  0.00    +0.000 OA
ATOM     10  H   UNL     1      47.165  28.816 198.157  0.00  0.00    +0.000 HD
ENDBRANCH   6   9
BRANCH   8  11
ATOM     11  O   UNL     1      50.511  28.358 201.905  0.00  0.00    +0.000 OA
ATOM     12  H   UNL     1      49.725  28.018 202.421  0.00  0.00    +0.000 HD
ENDBRANCH   8  11
ENDBRANCH   1   3
BRANCH   1  14
ATOM     13  C   UNL     1      53.760  30.533 201.370  0.00  0.00    +0.000 C 
ATOM     14  C   UNL     1      53.822  29.559 200.422  0.00  0.00    +0.000 C 
BRANCH  13  18
ATOM     15  C   UNL     1      56.408  33.877 201.153  0.00  0.00    +0.000 A 
ATOM     16  C   UNL     1      56.513  32.883 200.194  0.00  0.00    +0.000 A 
ATOM     17  C   UNL     1      55.457  31.942 200.227  0.00  0.00    +0.000 A 
ATOM     18  C   UNL     1      54.642  31.765 201.251  0.00  0.00    +0.000 A 
ATOM     19  C   UNL     1      54.634  32.750 202.199  0.00  0.00    +0.000 A 
ATOM     20  C   UNL     1      55.551  33.774 202.161  0.00  0.00    +0.000 A 
BRANCH  15  22
ATOM     21  C   UNL     1      57.936  35.546 202.117  0.00  0.00    +0.000 C 
ATOM     22  O   UNL     1      57.175  35.065 201.020  0.00  0.00    +0.000 OA
ENDBRANCH  15  22
ENDBRANCH  13  18
ENDBRANCH   1  14
TORSDOF 6
ENDMDL
