MODEL 1
REMARK VINA RESULT:    -7.335      0.000      0.000
REMARK INTER + INTRA:          -9.246
REMARK INTER:                  -8.867
REMARK INTRA:                  -0.378
REMARK UNBOUND:                -0.410
REMARK  Name = 
REMARK  5 active torsions:
REMARK  status: ('A' for Active; 'I' for Inactive)
REMARK    1  A    between atoms: C_1  and  O_2
REMARK    2  A    between atoms: O_2  and  C_3
REMARK    3  A    between atoms: C_5  and  O_6
REMARK    4  A    between atoms: C_8  and  C_9
REMARK    5  A    between atoms: C_10  and  C_11
REMARK                            x       y       z     vdW  Elec       q    Type
REMARK                         _______ _______ _______ _____ _____    ______ ____
ROOT
ATOM      1  C   UNL     1      50.050  28.556 200.474  0.00  0.00    +0.000 A 
ATOM      2  C   UNL     1      48.713  28.384 200.206  0.00  0.00    +0.000 A 
ATOM      3  C   UNL     1      48.296  28.104 198.920  0.00  0.00    +0.000 A 
ATOM      4  C   UNL     1      49.214  27.976 197.906  0.00  0.00    +0.000 A 
ATOM      5  C   UNL     1      50.558  28.116 198.167  0.00  0.00    +0.000 A 
ATOM      6  C   UNL     1      51.016  28.401 199.459  0.00  0.00    +0.000 A 
ENDROOT
BRANCH   1   8
ATOM      7  C   UNL     1      51.721  29.225 202.108  0.00  0.00    +0.000 C 
ATOM      8  O   UNL     1      50.399  28.855 201.746  0.00  0.00    +0.000 OA
ENDBRANCH   1   8
BRANCH   3   9
ATOM      9  O   UNL     1      46.911  27.946 198.645  0.00  0.00    +0.000 OA
ATOM     10  H   UNL     1      46.287  28.719 198.767  0.00  0.00    +0.000 HD
ENDBRANCH   3   9
BRANCH   5  11
ATOM     11  C   UNL     1      51.561  27.961 197.036  0.00  0.00    +0.000 C 
ATOM     12  C   UNL     1      52.887  28.145 197.272  0.00  0.00    +0.000 C 
BRANCH  12  13
ATOM     13  C   UNL     1      53.890  27.991 196.140  0.00  0.00    +0.000 A 
ATOM     14  C   UNL     1      54.461  26.764 195.841  0.00  0.00    +0.000 A 
ATOM     15  C   UNL     1      55.604  26.850 195.012  0.00  0.00    +0.000 A 
ATOM     16  C   UNL     1      55.920  27.903 194.280  0.00  0.00    +0.000 A 
ATOM     17  C   UNL     1      55.272  29.070 194.580  0.00  0.00    +0.000 A 
ATOM     18  C   UNL     1      54.232  29.089 195.476  0.00  0.00    +0.000 A 
ENDBRANCH  12  13
ENDBRANCH   5  11
TORSDOF 4
ENDMDL
MODEL 2
REMARK VINA RESULT:    -7.270      8.874     12.157
REMARK INTER + INTRA:          -9.167
REMARK INTER:                  -8.788
REMARK INTRA:                  -0.380
REMARK UNBOUND:                -0.410
REMARK  Name = 
REMARK  5 active torsions:
REMARK  status: ('A' for Active; 'I' for Inactive)
REMARK    1  A    between atoms: C_1  and  O_2
REMARK    2  A    between atoms: O_2  and  C_3
REMARK    3  A    between atoms: C_5  and  O_6
REMARK    4  A    between atoms: C_8  and  C_9
REMARK    5  A    between atoms: C_10  and  C_11
REMARK                            x       y       z     vdW  Elec       q    Type
REMARK                         _______ _______ _______ _____ _____    ______ ____
ROOT
ATOM      1  C   UNL     1      45.509  20.537 194.533  0.00  0.00    +0.000 A 
ATOM      2  C   UNL     1      46.825  20.934 194.562  0.00  0.00    +0.000 A 
ATOM      3  C   UNL     1      47.144  22.276 194.513  0.00  0.00    +0.000 A 
ATOM      4  C   UNL     1      46.150  23.223 194.456  0.00  0.00    +0.000 A 
ATOM      5  C   UNL     1      44.828  22.840 194.457  0.00  0.00    +0.000 A 
ATOM      6  C   UNL     1      44.469  21.489 194.505  0.00  0.00    +0.000 A 
ENDROOT
BRANCH   1   8
ATOM      7  C   UNL     1      44.043  18.672 195.064  0.00  0.00    +0.000 C 
ATOM      8  O   UNL     1      45.256  19.209 194.556  0.00  0.00    +0.000 OA
ENDBRANCH   1   8
BRANCH   3   9
ATOM      9  O   UNL     1      48.506  22.679 194.523  0.00  0.00    +0.000 OA
ATOM     10  H   UNL     1      49.109  22.424 193.766  0.00  0.00    +0.000 HD
ENDBRANCH   3   9
BRANCH   5  11
ATOM     11  C   UNL     1      43.742  23.902 194.405  0.00  0.00    +0.000 C 
ATOM     12  C   UNL     1      42.435  23.545 194.532  0.00  0.00    +0.000 C 
BRANCH  12  13
ATOM     13  C   UNL     1      41.348  24.607 194.479  0.00  0.00    +0.000 A 
ATOM     14  C   UNL     1      40.762  25.101 195.633  0.00  0.00    +0.000 A 
ATOM     15  C   UNL     1      39.558  25.808 195.407  0.00  0.00    +0.000 A 
ATOM     16  C   UNL     1      39.180  26.289 194.236  0.00  0.00    +0.000 A 
ATOM     17  C   UNL     1      39.844  25.811 193.140  0.00  0.00    +0.000 A 
ATOM     18  C   UNL     1      40.951  25.009 193.277  0.00  0.00    +0.000 A 
ENDBRANCH  12  13
ENDBRANCH   5  11
TORSDOF 4
ENDMDL
MODEL 3
REMARK VINA RESULT:    -7.190      8.928     11.074
REMARK INTER + INTRA:          -9.070
REMARK INTER:                  -8.690
REMARK INTRA:                  -0.381
REMARK UNBOUND:                -0.410
REMARK  Name = 
REMARK  5 active torsions:
REMARK  status: ('A' for Active; 'I' for Inactive)
REMARK    1  A    between atoms: C_1  and  O_2
REMARK    2  A    between atoms: O_2  and  C_3
REMARK    3  A    between atoms: C_5  and  O_6
REMARK    4  A    between atoms: C_8  and  C_9
REMARK    5  A    between atoms: C_10  and  C_11
REMARK                            x       y       z     vdW  Elec       q    Type
REMARK                         _______ _______ _______ _____ _____    ______ ____
ROOT
ATOM      1  C   UNL     1      40.133  25.202 194.624  0.00  0.00    +0.000 A 
ATOM      2  C   UNL     1      39.499  24.942 193.432  0.00  0.00    +0.000 A 
ATOM      3  C   UNL     1      40.198  24.367 192.389  0.00  0.00    +0.000 A 
ATOM      4  C   UNL     1      41.522  24.035 192.541  0.00  0.00    +0.000 A 
ATOM      5  C   UNL     1      42.160  24.263 193.740  0.00  0.00    +0.000 A 
ATOM      6  C   UNL     1      41.482  24.843 194.818  0.00  0.00    +0.000 A 
ENDROOT
BRANCH   1   8
ATOM      7  C   UNL     1      39.519  25.414 196.967  0.00  0.00    +0.000 C 
ATOM      8  O   UNL     1      39.406  25.790 195.602  0.00  0.00    +0.000 OA
ENDBRANCH   1   8
BRANCH   3   9
ATOM      9  O   UNL     1      39.543  24.119 191.152  0.00  0.00    +0.000 OA
ATOM     10  H   UNL     1      39.859  23.376 190.560  0.00  0.00    +0.000 HD
ENDBRANCH   3   9
BRANCH   5  11
ATOM     11  C   UNL     1      43.622  23.879 193.894  0.00  0.00    +0.000 C 
ATOM     12  C   UNL     1      43.958  22.609 194.249  0.00  0.00    +0.000 C 
BRANCH  12  13
ATOM     13  C   UNL     1      45.421  22.225 194.404  0.00  0.00    +0.000 A 
ATOM     14  C   UNL     1      46.391  23.170 194.693  0.00  0.00    +0.000 A 
ATOM     15  C   UNL     1      47.714  22.722 194.467  0.00  0.00    +0.000 A 
ATOM     16  C   UNL     1      48.065  21.455 194.349  0.00  0.00    +0.000 A 
ATOM     17  C   UNL     1      47.053  20.561 194.132  0.00  0.00    +0.000 A 
ATOM     18  C   UNL     1      45.738  20.950 194.207  0.00  0.00    +0.000 A 
ENDBRANCH  12  13
ENDBRANCH   5  11
TORSDOF 4
ENDMDL
MODEL 4
REMARK VINA RESULT:    -6.984      3.232      7.031
REMARK INTER + INTRA:          -8.823
REMARK INTER:                  -8.441
REMARK INTRA:                  -0.381
REMARK UNBOUND:                -0.410
REMARK  Name = 
REMARK  5 active torsions:
REMARK  status: ('A' for Active; 'I' for Inactive)
REMARK    1  A    between atoms: C_1  and  O_2
REMARK    2  A    between atoms: O_2  and  C_3
REMARK    3  A    between atoms: C_5  and  O_6
REMARK    4  A    between atoms: C_8  and  C_9
REMARK    5  A    between atoms: C_10  and  C_11
REMARK                            x       y       z     vdW  Elec       q    Type
REMARK                         _______ _______ _______ _____ _____    ______ ____
ROOT
ATOM      1  C   UNL     1      55.115  27.587 195.516  0.00  0.00    +0.000 A 
ATOM      2  C   UNL     1      55.602  28.870 195.433  0.00  0.00    +0.000 A 
ATOM      3  C   UNL     1      54.810  29.936 195.812  0.00  0.00    +0.000 A 
ATOM      4  C   UNL     1      53.541  29.720 196.292  0.00  0.00    +0.000 A 
ATOM      5  C   UNL     1      53.054  28.438 196.408  0.00  0.00    +0.000 A 
ATOM      6  C   UNL     1      53.828  27.335 196.033  0.00  0.00    +0.000 A 
ENDROOT
BRANCH   1   8
ATOM      7  C   UNL     1      55.933  25.307 195.727  0.00  0.00    +0.000 C 
ATOM      8  O   UNL     1      55.925  26.584 195.106  0.00  0.00    +0.000 OA
ENDBRANCH   1   8
BRANCH   3   9
ATOM      9  O   UNL     1      55.311  31.261 195.706  0.00  0.00    +0.000 OA
ATOM     10  H   UNL     1      54.678  32.036 195.699  0.00  0.00    +0.000 HD
ENDBRANCH   3   9
BRANCH   5  11
ATOM     11  C   UNL     1      51.651  28.217 196.952  0.00  0.00    +0.000 C 
ATOM     12  C   UNL     1      51.329  28.652 198.200  0.00  0.00    +0.000 C 
BRANCH  12  13
ATOM     13  C   UNL     1      49.927  28.431 198.745  0.00  0.00    +0.000 A 
ATOM     14  C   UNL     1      48.961  27.767 198.007  0.00  0.00    +0.000 A 
ATOM     15  C   UNL     1      47.645  27.944 198.495  0.00  0.00    +0.000 A 
ATOM     16  C   UNL     1      47.348  28.372 199.709  0.00  0.00    +0.000 A 
ATOM     17  C   UNL     1      48.363  28.958 200.413  0.00  0.00    +0.000 A 
ATOM     18  C   UNL     1      49.652  28.940 199.940  0.00  0.00    +0.000 A 
ENDBRANCH  12  13
ENDBRANCH   5  11
TORSDOF 4
ENDMDL
MODEL 5
REMARK VINA RESULT:    -6.923      3.256      6.813
REMARK INTER + INTRA:          -8.750
REMARK INTER:                  -8.359
REMARK INTRA:                  -0.391
REMARK UNBOUND:                -0.410
REMARK  Name = 
REMARK  5 active torsions:
REMARK  status: ('A' for Active; 'I' for Inactive)
REMARK    1  A    between atoms: C_1  and  O_2
REMARK    2  A    between atoms: O_2  and  C_3
REMARK    3  A    between atoms: C_5  and  O_6
REMARK    4  A    between atoms: C_8  and  C_9
REMARK    5  A    between atoms: C_10  and  C_11
REMARK                            x       y       z     vdW  Elec       q    Type
REMARK                         _______ _______ _______ _____ _____    ______ ____
ROOT
ATOM      1  C   UNL     1      55.534  29.617 196.689  0.00  0.00    +0.000 A 
ATOM      2  C   UNL     1      55.950  28.910 195.585  0.00  0.00    +0.000 A 
ATOM      3  C   UNL     1      55.087  28.030 194.963  0.00  0.00    +0.000 A 
ATOM      4  C   UNL     1      53.804  27.870 195.429  0.00  0.00    +0.000 A 
ATOM      5  C   UNL     1      53.367  28.596 196.514  0.00  0.00    +0.000 A 
ATOM      6  C   UNL     1      54.214  29.496 197.169  0.00  0.00    +0.000 A 
ENDROOT
BRANCH   1   8
ATOM      7  C   UNL     1      56.265  31.855 197.296  0.00  0.00    +0.000 C 
ATOM      8  O   UNL     1      56.430  30.445 197.274  0.00  0.00    +0.000 OA
ENDBRANCH   1   8
BRANCH   3   9
ATOM      9  O   UNL     1      55.528  27.287 193.835  0.00  0.00    +0.000 OA
ATOM     10  H   UNL     1      54.894  27.093 193.086  0.00  0.00    +0.000 HD
ENDBRANCH   3   9
BRANCH   5  11
ATOM     11  C   UNL     1      51.941  28.415 197.009  0.00  0.00    +0.000 C 
ATOM     12  C   UNL     1      51.661  28.531 198.335  0.00  0.00    +0.000 C 
BRANCH  12  13
ATOM     13  C   UNL     1      50.235  28.350 198.831  0.00  0.00    +0.000 A 
ATOM     14  C   UNL     1      49.258  27.781 198.030  0.00  0.00    +0.000 A 
ATOM     15  C   UNL     1      47.939  27.996 198.496  0.00  0.00    +0.000 A 
ATOM     16  C   UNL     1      47.630  28.366 199.726  0.00  0.00    +0.000 A 
ATOM     17  C   UNL     1      48.654  28.856 200.489  0.00  0.00    +0.000 A 
ATOM     18  C   UNL     1      49.953  28.800 200.048  0.00  0.00    +0.000 A 
ENDBRANCH  12  13
ENDBRANCH   5  11
TORSDOF 4
ENDMDL
MODEL 6
REMARK VINA RESULT:    -6.846      9.470     11.842
REMARK INTER + INTRA:          -8.656
REMARK INTER:                  -8.260
REMARK INTRA:                  -0.396
REMARK UNBOUND:                -0.410
REMARK  Name = 
REMARK  5 active torsions:
REMARK  status: ('A' for Active; 'I' for Inactive)
REMARK    1  A    between atoms: C_1  and  O_2
REMARK    2  A    between atoms: O_2  and  C_3
REMARK    3  A    between atoms: C_5  and  O_6
REMARK    4  A    between atoms: C_8  and  C_9
REMARK    5  A    between atoms: C_10  and  C_11
REMARK                            x       y       z     vdW  Elec       q    Type
REMARK                         _______ _______ _______ _____ _____    ______ ____
ROOT
ATOM      1  C   UNL     1      39.542  23.559 193.106  0.00  0.00    +0.000 A 
ATOM      2  C   UNL     1      39.072  24.773 193.548  0.00  0.00    +0.000 A 
ATOM      3  C   UNL     1      39.920  25.646 194.200  0.00  0.00    +0.000 A 
ATOM      4  C   UNL     1      41.240  25.316 194.394  0.00  0.00    +0.000 A 
ATOM      5  C   UNL     1      41.729  24.116 193.929  0.00  0.00    +0.000 A 
ATOM      6  C   UNL     1      40.898  23.208 193.264  0.00  0.00    +0.000 A 
ENDROOT
BRANCH   1   8
ATOM      7  C   UNL     1      38.845  22.265 191.169  0.00  0.00    +0.000 C 
ATOM      8  O   UNL     1      38.661  22.732 192.497  0.00  0.00    +0.000 OA
ENDBRANCH   1   8
BRANCH   3   9
ATOM      9  O   UNL     1      39.425  26.891 194.672  0.00  0.00    +0.000 OA
ATOM     10  H   UNL     1      38.854  26.922 195.494  0.00  0.00    +0.000 HD
ENDBRANCH   3   9
BRANCH   5  11
ATOM     11  C   UNL     1      43.194  23.773 194.142  0.00  0.00    +0.000 C 
ATOM     12  C   UNL     1      43.595  22.473 194.141  0.00  0.00    +0.000 C 
BRANCH  12  13
ATOM     13  C   UNL     1      45.061  22.129 194.355  0.00  0.00    +0.000 A 
ATOM     14  C   UNL     1      46.000  23.107 194.640  0.00  0.00    +0.000 A 
ATOM     15  C   UNL     1      47.339  22.683 194.470  0.00  0.00    +0.000 A 
ATOM     16  C   UNL     1      47.722  21.421 194.407  0.00  0.00    +0.000 A 
ATOM     17  C   UNL     1      46.738  20.496 194.192  0.00  0.00    +0.000 A 
ATOM     18  C   UNL     1      45.413  20.857 194.213  0.00  0.00    +0.000 A 
ENDBRANCH  12  13
ENDBRANCH   5  11
TORSDOF 4
ENDMDL
MODEL 7
REMARK VINA RESULT:    -6.515      3.352      7.051
REMARK INTER + INTRA:          -8.258
REMARK INTER:                  -7.870
REMARK INTRA:                  -0.388
REMARK UNBOUND:                -0.410
REMARK  Name = 
REMARK  5 active torsions:
REMARK  status: ('A' for Active; 'I' for Inactive)
REMARK    1  A    between atoms: C_1  and  O_2
REMARK    2  A    between atoms: O_2  and  C_3
REMARK    3  A    between atoms: C_5  and  O_6
REMARK    4  A    between atoms: C_8  and  C_9
REMARK    5  A    between atoms: C_10  and  C_11
REMARK                            x       y       z     vdW  Elec       q    Type
REMARK                         _______ _______ _______ _____ _____    ______ ____
ROOT
ATOM      1  C   UNL     1      55.422  30.186 197.165  0.00  0.00    +0.000 A 
ATOM      2  C   UNL     1      55.957  31.205 197.917  0.00  0.00    +0.000 A 
ATOM      3  C   UNL     1      55.159  31.904 198.801  0.00  0.00    +0.000 A 
ATOM      4  C   UNL     1      53.833  31.573 198.949  0.00  0.00    +0.000 A 
ATOM      5  C   UNL     1      53.294  30.534 198.223  0.00  0.00    +0.000 A 
ATOM      6  C   UNL     1      54.074  29.806 197.318  0.00  0.00    +0.000 A 
ENDROOT
BRANCH   1   8
ATOM      7  C   UNL     1      55.817  28.455 195.503  0.00  0.00    +0.000 C 
ATOM      8  O   UNL     1      56.244  29.554 196.296  0.00  0.00    +0.000 OA
ENDBRANCH   1   8
BRANCH   3   9
ATOM      9  O   UNL     1      55.711  32.969 199.561  0.00  0.00    +0.000 OA
ATOM     10  H   UNL     1      55.713  33.899 199.191  0.00  0.00    +0.000 HD
ENDBRANCH   3   9
BRANCH   5  11
ATOM     11  C   UNL     1      51.829  30.175 198.408  0.00  0.00    +0.000 C 
ATOM     12  C   UNL     1      51.486  29.043 199.079  0.00  0.00    +0.000 C 
BRANCH  12  13
ATOM     13  C   UNL     1      50.020  28.682 199.263  0.00  0.00    +0.000 A 
ATOM     14  C   UNL     1      49.309  28.016 198.278  0.00  0.00    +0.000 A 
ATOM     15  C   UNL     1      47.906  28.062 198.453  0.00  0.00    +0.000 A 
ATOM     16  C   UNL     1      47.303  28.368 199.587  0.00  0.00    +0.000 A 
ATOM     17  C   UNL     1      48.075  28.963 200.546  0.00  0.00    +0.000 A 
ATOM     18  C   UNL     1      49.435  29.072 200.390  0.00  0.00    +0.000 A 
ENDBRANCH  12  13
ENDBRANCH   5  11
TORSDOF 4
ENDMDL
MODEL 8
REMARK VINA RESULT:    -6.494     10.878     13.026
REMARK INTER + INTRA:          -8.233
REMARK INTER:                  -7.846
REMARK INTRA:                  -0.387
REMARK UNBOUND:                -0.410
REMARK  Name = 
REMARK  5 active torsions:
REMARK  status: ('A' for Active; 'I' for Inactive)
REMARK    1  A    between atoms: C_1  and  O_2
REMARK    2  A    between atoms: O_2  and  C_3
REMARK    3  A    between atoms: C_5  and  O_6
REMARK    4  A    between atoms: C_8  and  C_9
REMARK    5  A    between atoms: C_10  and  C_11
REMARK                            x       y       z     vdW  Elec       q    Type
REMARK                         _______ _______ _______ _____ _____    ______ ____
ROOT
ATOM      1  C   UNL     1      39.955  20.568 191.397  0.00  0.00    +0.000 A 
ATOM      2  C   UNL     1      39.058  21.551 191.743  0.00  0.00    +0.000 A 
ATOM      3  C   UNL     1      39.489  22.672 192.424  0.00  0.00    +0.000 A 
ATOM      4  C   UNL     1      40.817  22.821 192.744  0.00  0.00    +0.000 A 
ATOM      5  C   UNL     1      41.729  21.859 192.376  0.00  0.00    +0.000 A 
ATOM      6  C   UNL     1      41.328  20.710 191.686  0.00  0.00    +0.000 A 
ENDROOT
BRANCH   1   8
ATOM      7  C   UNL     1      40.309  18.587 190.033  0.00  0.00    +0.000 C 
ATOM      8  O   UNL     1      39.473  19.480 190.754  0.00  0.00    +0.000 OA
ENDBRANCH   1   8
BRANCH   3   9
ATOM      9  O   UNL     1      38.554  23.675 192.796  0.00  0.00    +0.000 OA
ATOM     10  H   UNL     1      38.378  23.860 193.764  0.00  0.00    +0.000 HD
ENDBRANCH   3   9
BRANCH   5  11
ATOM     11  C   UNL     1      43.196  22.046 192.728  0.00  0.00    +0.000 C 
ATOM     12  C   UNL     1      43.738  21.365 193.774  0.00  0.00    +0.000 C 
BRANCH  12  13
ATOM     13  C   UNL     1      45.205  21.553 194.126  0.00  0.00    +0.000 A 
ATOM     14  C   UNL     1      45.718  22.798 194.451  0.00  0.00    +0.000 A 
ATOM     15  C   UNL     1      47.130  22.863 194.414  0.00  0.00    +0.000 A 
ATOM     16  C   UNL     1      47.929  21.812 194.435  0.00  0.00    +0.000 A 
ATOM     17  C   UNL     1      47.349  20.602 194.173  0.00  0.00    +0.000 A 
ATOM     18  C   UNL     1      45.986  20.480 194.066  0.00  0.00    +0.000 A 
ENDBRANCH  12  13
ENDBRANCH   5  11
TORSDOF 4
ENDMDL
MODEL 9
REMARK VINA RESULT:    -6.425      3.867      5.872
REMARK INTER + INTRA:          -8.150
REMARK INTER:                  -7.740
REMARK INTRA:                  -0.410
REMARK UNBOUND:                -0.410
REMARK  Name = 
REMARK  5 active torsions:
REMARK  status: ('A' for Active; 'I' for Inactive)
REMARK    1  A    between atoms: C_1  and  O_2
REMARK    2  A    between atoms: O_2  and  C_3
REMARK    3  A    between atoms: C_5  and  O_6
REMARK    4  A    between atoms: C_8  and  C_9
REMARK    5  A    between atoms: C_10  and  C_11
REMARK                            x       y       z     vdW  Elec       q    Type
REMARK                         _______ _______ _______ _____ _____    ______ ____
ROOT
ATOM      1  C   UNL     1      50.433  28.503 197.925  0.00  0.00    +0.000 A 
ATOM      2  C   UNL     1      51.082  28.005 196.820  0.00  0.00    +0.000 A 
ATOM      3  C   UNL     1      52.303  28.526 196.442  0.00  0.00    +0.000 A 
ATOM      4  C   UNL     1      52.885  29.531 197.177  0.00  0.00    +0.000 A 
ATOM      5  C   UNL     1      52.259  30.017 198.302  0.00  0.00    +0.000 A 
ATOM      6  C   UNL     1      51.021  29.512 198.714  0.00  0.00    +0.000 A 
ENDROOT
BRANCH   1   8
ATOM      7  C   UNL     1      48.523  28.315 199.418  0.00  0.00    +0.000 C 
ATOM      8  O   UNL     1      49.227  27.972 198.233  0.00  0.00    +0.000 OA
ENDBRANCH   1   8
BRANCH   3   9
ATOM      9  O   UNL     1      52.960  28.021 195.288  0.00  0.00    +0.000 OA
ATOM     10  H   UNL     1      52.664  28.311 194.377  0.00  0.00    +0.000 HD
ENDBRANCH   3   9
BRANCH   5  11
ATOM     11  C   UNL     1      52.923  31.121 199.109  0.00  0.00    +0.000 C 
ATOM     12  C   UNL     1      53.975  30.832 199.921  0.00  0.00    +0.000 C 
BRANCH  12  13
ATOM     13  C   UNL     1      54.639  31.935 200.729  0.00  0.00    +0.000 A 
ATOM     14  C   UNL     1      55.151  31.698 201.994  0.00  0.00    +0.000 A 
ATOM     15  C   UNL     1      55.415  32.873 202.736  0.00  0.00    +0.000 A 
ATOM     16  C   UNL     1      55.529  34.080 202.211  0.00  0.00    +0.000 A 
ATOM     17  C   UNL     1      55.067  34.233 200.933  0.00  0.00    +0.000 A 
ATOM     18  C   UNL     1      54.668  33.149 200.190  0.00  0.00    +0.000 A 
ENDBRANCH  12  13
ENDBRANCH   5  11
TORSDOF 4
ENDMDL
