MODEL 1
REMARK VINA RESULT:    -7.458      0.000      0.000
REMARK INTER + INTRA:         -10.310
REMARK INTER:                  -9.485
REMARK INTRA:                  -0.825
REMARK UNBOUND:                -0.672
REMARK  Name = 
REMARK  7 active torsions:
REMARK  status: ('A' for Active; 'I' for Inactive)
REMARK    1  A    between atoms: C_1  and  O_2
REMARK    2  A    between atoms: O_2  and  C_3
REMARK    3  A    between atoms: C_6  and  C_7
REMARK    4  A    between atoms: C_7  and  C_9
REMARK    5  A    between atoms: C_10  and  C_11
REMARK    6  A    between atoms: C_14  and  O_15
REMARK    7  A    between atoms: C_18  and  O_19
REMARK                            x       y       z     vdW  Elec       q    Type
REMARK                         _______ _______ _______ _____ _____    ______ ____
ROOT
ATOM      1  C   UNL     1      54.659  29.010 197.163  0.00  0.00    +0.000 C 
ATOM      2  O   UNL     1      54.976  28.406 196.091  0.00  0.00    +0.000 OA
ENDROOT
BRANCH   1   6
ATOM      3  C   UNL     1      57.219  32.025 198.804  0.00  0.00    +0.000 A 
ATOM      4  C   UNL     1      56.923  30.897 199.532  0.00  0.00    +0.000 A 
ATOM      5  C   UNL     1      56.095  29.928 199.000  0.00  0.00    +0.000 A 
ATOM      6  C   UNL     1      55.578  30.076 197.735  0.00  0.00    +0.000 A 
ATOM      7  C   UNL     1      55.892  31.187 196.984  0.00  0.00    +0.000 A 
ATOM      8  C   UNL     1      56.728  32.188 197.492  0.00  0.00    +0.000 A 
BRANCH   3  10
ATOM      9  C   UNL     1      57.528  33.720 200.478  0.00  0.00    +0.000 C 
ATOM     10  O   UNL     1      58.013  32.952 199.386  0.00  0.00    +0.000 OA
ENDBRANCH   3  10
BRANCH   7  11
ATOM     11  O   UNL     1      55.360  31.319 195.675  0.00  0.00    +0.000 OA
ATOM     12  H   UNL     1      55.638  32.086 195.097  0.00  0.00    +0.000 HD
ENDBRANCH   7  11
ENDBRANCH   1   6
BRANCH   1  13
ATOM     13  C   UNL     1      53.361  28.664 197.874  0.00  0.00    +0.000 C 
ATOM     14  C   UNL     1      52.412  29.621 198.060  0.00  0.00    +0.000 C 
BRANCH  14  15
ATOM     15  C   UNL     1      51.114  29.276 198.771  0.00  0.00    +0.000 A 
ATOM     16  C   UNL     1      49.925  29.229 198.075  0.00  0.00    +0.000 A 
ATOM     17  C   UNL     1      48.733  28.865 198.708  0.00  0.00    +0.000 A 
ATOM     18  C   UNL     1      48.795  28.531 200.077  0.00  0.00    +0.000 A 
ATOM     19  C   UNL     1      49.982  28.610 200.767  0.00  0.00    +0.000 A 
ATOM     20  C   UNL     1      51.142  28.973 200.111  0.00  0.00    +0.000 A 
BRANCH  18  21
ATOM     21  O   UNL     1      47.697  28.143 200.765  0.00  0.00    +0.000 OA
ATOM     22  H   UNL     1      47.765  27.409 201.441  0.00  0.00    +0.000 HD
ENDBRANCH  18  21
ENDBRANCH  14  15
ENDBRANCH   1  13
TORSDOF 6
ENDMDL
MODEL 2
REMARK VINA RESULT:    -7.301     11.689     16.647
REMARK INTER + INTRA:         -10.107
REMARK INTER:                  -9.403
REMARK INTRA:                  -0.704
REMARK UNBOUND:                -0.672
REMARK  Name = 
REMARK  7 active torsions:
REMARK  status: ('A' for Active; 'I' for Inactive)
REMARK    1  A    between atoms: C_1  and  O_2
REMARK    2  A    between atoms: O_2  and  C_3
REMARK    3  A    between atoms: C_6  and  C_7
REMARK    4  A    between atoms: C_7  and  C_9
REMARK    5  A    between atoms: C_10  and  C_11
REMARK    6  A    between atoms: C_14  and  O_15
REMARK    7  A    between atoms: C_18  and  O_19
REMARK                            x       y       z     vdW  Elec       q    Type
REMARK                         _______ _______ _______ _____ _____    ______ ____
ROOT
ATOM      1  C   UNL     1      41.401  23.471 193.519  0.00  0.00    +0.000 C 
ATOM      2  O   UNL     1      41.063  24.547 194.104  0.00  0.00    +0.000 OA
ENDROOT
BRANCH   1   6
ATOM      3  C   UNL     1      38.448  20.957 191.700  0.00  0.00    +0.000 A 
ATOM      4  C   UNL     1      39.109  20.542 192.832  0.00  0.00    +0.000 A 
ATOM      5  C   UNL     1      40.062  21.355 193.414  0.00  0.00    +0.000 A 
ATOM      6  C   UNL     1      40.342  22.589 192.877  0.00  0.00    +0.000 A 
ATOM      7  C   UNL     1      39.666  23.028 191.762  0.00  0.00    +0.000 A 
ATOM      8  C   UNL     1      38.694  22.230 191.147  0.00  0.00    +0.000 A 
BRANCH   3  10
ATOM      9  C   UNL     1      37.981  18.915 190.523  0.00  0.00    +0.000 C 
ATOM     10  O   UNL     1      37.546  20.108 191.159  0.00  0.00    +0.000 OA
ENDBRANCH   3  10
BRANCH   7  11
ATOM     11  O   UNL     1      39.958  24.310 191.226  0.00  0.00    +0.000 OA
ATOM     12  H   UNL     1      39.687  24.535 190.291  0.00  0.00    +0.000 HD
ENDBRANCH   7  11
ENDBRANCH   1   6
BRANCH   1  13
ATOM     13  C   UNL     1      42.864  23.065 193.461  0.00  0.00    +0.000 C 
ATOM     14  C   UNL     1      43.473  22.555 194.566  0.00  0.00    +0.000 C 
BRANCH  14  15
ATOM     15  C   UNL     1      44.936  22.148 194.508  0.00  0.00    +0.000 A 
ATOM     16  C   UNL     1      45.290  20.832 194.304  0.00  0.00    +0.000 A 
ATOM     17  C   UNL     1      46.632  20.454 194.200  0.00  0.00    +0.000 A 
ATOM     18  C   UNL     1      47.606  21.469 194.294  0.00  0.00    +0.000 A 
ATOM     19  C   UNL     1      47.242  22.775 194.527  0.00  0.00    +0.000 A 
ATOM     20  C   UNL     1      45.906  23.114 194.624  0.00  0.00    +0.000 A 
BRANCH  18  21
ATOM     21  O   UNL     1      48.927  21.201 194.180  0.00  0.00    +0.000 OA
ATOM     22  H   UNL     1      49.258  20.264 194.296  0.00  0.00    +0.000 HD
ENDBRANCH  18  21
ENDBRANCH  14  15
ENDBRANCH   1  13
TORSDOF 6
ENDMDL
MODEL 3
REMARK VINA RESULT:    -7.291      1.775      2.211
REMARK INTER + INTRA:         -10.095
REMARK INTER:                  -9.325
REMARK INTRA:                  -0.770
REMARK UNBOUND:                -0.672
REMARK  Name = 
REMARK  7 active torsions:
REMARK  status: ('A' for Active; 'I' for Inactive)
REMARK    1  A    between atoms: C_1  and  O_2
REMARK    2  A    between atoms: O_2  and  C_3
REMARK    3  A    between atoms: C_6  and  C_7
REMARK    4  A    between atoms: C_7  and  C_9
REMARK    5  A    between atoms: C_10  and  C_11
REMARK    6  A    between atoms: C_14  and  O_15
REMARK    7  A    between atoms: C_18  and  O_19
REMARK                            x       y       z     vdW  Elec       q    Type
REMARK                         _______ _______ _______ _____ _____    ______ ____
ROOT
ATOM      1  C   UNL     1      54.119  30.391 197.194  0.00  0.00    +0.000 C 
ATOM      2  O   UNL     1      54.811  30.118 196.164  0.00  0.00    +0.000 OA
ENDROOT
BRANCH   1   6
ATOM      3  C   UNL     1      55.830  32.736 200.344  0.00  0.00    +0.000 A 
ATOM      4  C   UNL     1      54.596  33.059 199.832  0.00  0.00    +0.000 A 
ATOM      5  C   UNL     1      54.048  32.301 198.815  0.00  0.00    +0.000 A 
ATOM      6  C   UNL     1      54.725  31.211 198.321  0.00  0.00    +0.000 A 
ATOM      7  C   UNL     1      55.948  30.860 198.846  0.00  0.00    +0.000 A 
ATOM      8  C   UNL     1      56.532  31.605 199.877  0.00  0.00    +0.000 A 
BRANCH   3  10
ATOM      9  C   UNL     1      57.365  34.453 201.026  0.00  0.00    +0.000 C 
ATOM     10  O   UNL     1      56.327  33.529 201.319  0.00  0.00    +0.000 OA
ENDBRANCH   3  10
BRANCH   7  11
ATOM     11  O   UNL     1      56.628  29.724 198.334  0.00  0.00    +0.000 OA
ATOM     12  H   UNL     1      56.114  28.987 197.896  0.00  0.00    +0.000 HD
ENDBRANCH   7  11
ENDBRANCH   1   6
BRANCH   1  13
ATOM     13  C   UNL     1      52.687  29.895 197.301  0.00  0.00    +0.000 C 
ATOM     14  C   UNL     1      52.303  29.148 198.370  0.00  0.00    +0.000 C 
BRANCH  14  15
ATOM     15  C   UNL     1      50.870  28.653 198.477  0.00  0.00    +0.000 A 
ATOM     16  C   UNL     1      50.072  29.039 199.533  0.00  0.00    +0.000 A 
ATOM     17  C   UNL     1      48.738  28.630 199.616  0.00  0.00    +0.000 A 
ATOM     18  C   UNL     1      48.235  27.824 198.573  0.00  0.00    +0.000 A 
ATOM     19  C   UNL     1      49.049  27.422 197.540  0.00  0.00    +0.000 A 
ATOM     20  C   UNL     1      50.363  27.844 197.488  0.00  0.00    +0.000 A 
BRANCH  18  21
ATOM     21  O   UNL     1      46.950  27.402 198.556  0.00  0.00    +0.000 OA
ATOM     22  H   UNL     1      46.715  26.506 198.933  0.00  0.00    +0.000 HD
ENDBRANCH  18  21
ENDBRANCH  14  15
ENDBRANCH   1  13
TORSDOF 6
ENDMDL
MODEL 4
REMARK VINA RESULT:    -7.280     12.192     17.091
REMARK INTER + INTRA:         -10.080
REMARK INTER:                  -9.283
REMARK INTRA:                  -0.797
REMARK UNBOUND:                -0.672
REMARK  Name = 
REMARK  7 active torsions:
REMARK  status: ('A' for Active; 'I' for Inactive)
REMARK    1  A    between atoms: C_1  and  O_2
REMARK    2  A    between atoms: O_2  and  C_3
REMARK    3  A    between atoms: C_6  and  C_7
REMARK    4  A    between atoms: C_7  and  C_9
REMARK    5  A    between atoms: C_10  and  C_11
REMARK    6  A    between atoms: C_14  and  O_15
REMARK    7  A    between atoms: C_18  and  O_19
REMARK                            x       y       z     vdW  Elec       q    Type
REMARK                         _______ _______ _______ _____ _____    ______ ____
ROOT
ATOM      1  C   UNL     1      41.048  23.002 192.137  0.00  0.00    +0.000 C 
ATOM      2  O   UNL     1      40.331  24.051 192.104  0.00  0.00    +0.000 OA
ENDROOT
BRANCH   1   6
ATOM      3  C   UNL     1      39.343  19.228 191.044  0.00  0.00    +0.000 A 
ATOM      4  C   UNL     1      40.502  19.664 190.446  0.00  0.00    +0.000 A 
ATOM      5  C   UNL     1      41.048  20.882 190.800  0.00  0.00    +0.000 A 
ATOM      6  C   UNL     1      40.447  21.657 191.763  0.00  0.00    +0.000 A 
ATOM      7  C   UNL     1      39.302  21.219 192.390  0.00  0.00    +0.000 A 
ATOM      8  C   UNL     1      38.723  19.989 192.056  0.00  0.00    +0.000 A 
BRANCH   3  10
ATOM      9  C   UNL     1      38.224  17.925 189.364  0.00  0.00    +0.000 C 
ATOM     10  O   UNL     1      38.841  18.040 190.638  0.00  0.00    +0.000 OA
ENDBRANCH   3  10
BRANCH   7  11
ATOM     11  O   UNL     1      38.700  22.025 193.390  0.00  0.00    +0.000 OA
ATOM     12  H   UNL     1      38.005  21.637 193.995  0.00  0.00    +0.000 HD
ENDBRANCH   7  11
ENDBRANCH   1   6
BRANCH   1  13
ATOM     13  C   UNL     1      42.508  23.092 192.551  0.00  0.00    +0.000 C 
ATOM     14  C   UNL     1      42.967  22.345 193.591  0.00  0.00    +0.000 C 
BRANCH  14  15
ATOM     15  C   UNL     1      44.426  22.434 194.006  0.00  0.00    +0.000 A 
ATOM     16  C   UNL     1      45.290  21.389 193.758  0.00  0.00    +0.000 A 
ATOM     17  C   UNL     1      46.645  21.479 194.090  0.00  0.00    +0.000 A 
ATOM     18  C   UNL     1      47.097  22.683 194.670  0.00  0.00    +0.000 A 
ATOM     19  C   UNL     1      46.220  23.707 194.939  0.00  0.00    +0.000 A 
ATOM     20  C   UNL     1      44.887  23.585 194.598  0.00  0.00    +0.000 A 
BRANCH  18  21
ATOM     21  O   UNL     1      48.395  22.870 195.001  0.00  0.00    +0.000 OA
ATOM     22  H   UNL     1      48.635  23.488 195.750  0.00  0.00    +0.000 HD
ENDBRANCH  18  21
ENDBRANCH  14  15
ENDBRANCH   1  13
TORSDOF 6
ENDMDL
MODEL 5
REMARK VINA RESULT:    -7.246     12.098     17.007
REMARK INTER + INTRA:         -10.037
REMARK INTER:                  -9.204
REMARK INTRA:                  -0.833
REMARK UNBOUND:                -0.672
REMARK  Name = 
REMARK  7 active torsions:
REMARK  status: ('A' for Active; 'I' for Inactive)
REMARK    1  A    between atoms: C_1  and  O_2
REMARK    2  A    between atoms: O_2  and  C_3
REMARK    3  A    between atoms: C_6  and  C_7
REMARK    4  A    between atoms: C_7  and  C_9
REMARK    5  A    between atoms: C_10  and  C_11
REMARK    6  A    between atoms: C_14  and  O_15
REMARK    7  A    between atoms: C_18  and  O_19
REMARK                            x       y       z     vdW  Elec       q    Type
REMARK                         _______ _______ _______ _____ _____    ______ ____
ROOT
ATOM      1  C   UNL     1      40.833  23.528 193.782  0.00  0.00    +0.000 C 
ATOM      2  O   UNL     1      40.462  24.693 194.128  0.00  0.00    +0.000 OA
ENDROOT
BRANCH   1   6
ATOM      3  C   UNL     1      38.220  20.989 191.529  0.00  0.00    +0.000 A 
ATOM      4  C   UNL     1      38.623  20.623 192.792  0.00  0.00    +0.000 A 
ATOM      5  C   UNL     1      39.467  21.444 193.514  0.00  0.00    +0.000 A 
ATOM      6  C   UNL     1      39.895  22.638 192.984  0.00  0.00    +0.000 A 
ATOM      7  C   UNL     1      39.474  23.029 191.733  0.00  0.00    +0.000 A 
ATOM      8  C   UNL     1      38.619  22.222 190.974  0.00  0.00    +0.000 A 
BRANCH   3  10
ATOM      9  C   UNL     1      36.824  19.035 191.536  0.00  0.00    +0.000 C 
ATOM     10  O   UNL     1      37.416  20.134 190.859  0.00  0.00    +0.000 OA
ENDBRANCH   3  10
BRANCH   7  11
ATOM     11  O   UNL     1      39.915  24.271 191.204  0.00  0.00    +0.000 OA
ATOM     12  H   UNL     1      40.880  24.406 190.983  0.00  0.00    +0.000 HD
ENDBRANCH   7  11
ENDBRANCH   1   6
BRANCH   1  13
ATOM     13  C   UNL     1      42.214  23.024 194.167  0.00  0.00    +0.000 C 
ATOM     14  C   UNL     1      43.006  22.430 193.235  0.00  0.00    +0.000 C 
BRANCH  14  15
ATOM     15  C   UNL     1      44.387  21.926 193.619  0.00  0.00    +0.000 A 
ATOM     16  C   UNL     1      45.495  22.731 193.462  0.00  0.00    +0.000 A 
ATOM     17  C   UNL     1      46.764  22.297 193.858  0.00  0.00    +0.000 A 
ATOM     18  C   UNL     1      46.864  21.016 194.440  0.00  0.00    +0.000 A 
ATOM     19  C   UNL     1      45.756  20.211 194.565  0.00  0.00    +0.000 A 
ATOM     20  C   UNL     1      44.517  20.671 194.163  0.00  0.00    +0.000 A 
BRANCH  18  21
ATOM     21  O   UNL     1      48.046  20.523 194.876  0.00  0.00    +0.000 OA
ATOM     22  H   UNL     1      48.125  19.555 195.114  0.00  0.00    +0.000 HD
ENDBRANCH  18  21
ENDBRANCH  14  15
ENDBRANCH   1  13
TORSDOF 6
ENDMDL
MODEL 6
REMARK VINA RESULT:    -7.219     12.668     16.296
REMARK INTER + INTRA:         -10.002
REMARK INTER:                  -9.210
REMARK INTRA:                  -0.791
REMARK UNBOUND:                -0.672
REMARK  Name = 
REMARK  7 active torsions:
REMARK  status: ('A' for Active; 'I' for Inactive)
REMARK    1  A    between atoms: C_1  and  O_2
REMARK    2  A    between atoms: O_2  and  C_3
REMARK    3  A    between atoms: C_6  and  C_7
REMARK    4  A    between atoms: C_7  and  C_9
REMARK    5  A    between atoms: C_10  and  C_11
REMARK    6  A    between atoms: C_14  and  O_15
REMARK    7  A    between atoms: C_18  and  O_19
REMARK                            x       y       z     vdW  Elec       q    Type
REMARK                         _______ _______ _______ _____ _____    ______ ____
ROOT
ATOM      1  C   UNL     1      41.379  23.589 192.196  0.00  0.00    +0.000 C 
ATOM      2  O   UNL     1      40.759  24.682 192.380  0.00  0.00    +0.000 OA
ENDROOT
BRANCH   1   6
ATOM      3  C   UNL     1      45.301  23.010 193.818  0.00  0.00    +0.000 A 
ATOM      4  C   UNL     1      45.055  22.748 192.491  0.00  0.00    +0.000 A 
ATOM      5  C   UNL     1      43.788  22.934 191.972  0.00  0.00    +0.000 A 
ATOM      6  C   UNL     1      42.772  23.398 192.773  0.00  0.00    +0.000 A 
ATOM      7  C   UNL     1      43.013  23.693 194.096  0.00  0.00    +0.000 A 
ATOM      8  C   UNL     1      44.284  23.516 194.655  0.00  0.00    +0.000 A 
BRANCH   3  10
ATOM      9  C   UNL     1      47.061  21.459 194.336  0.00  0.00    +0.000 C 
ATOM     10  O   UNL     1      46.553  22.784 194.277  0.00  0.00    +0.000 OA
ENDBRANCH   3  10
BRANCH   7  11
ATOM     11  O   UNL     1      41.957  24.183 194.908  0.00  0.00    +0.000 OA
ATOM     12  H   UNL     1      42.051  24.190 195.903  0.00  0.00    +0.000 HD
ENDBRANCH   7  11
ENDBRANCH   1   6
BRANCH   1  13
ATOM     13  C   UNL     1      40.730  22.471 191.397  0.00  0.00    +0.000 C 
ATOM     14  C   UNL     1      40.450  21.281 191.994  0.00  0.00    +0.000 C 
BRANCH  14  15
ATOM     15  C   UNL     1      39.799  20.164 191.195  0.00  0.00    +0.000 A 
ATOM     16  C   UNL     1      38.432  19.995 191.212  0.00  0.00    +0.000 A 
ATOM     17  C   UNL     1      37.818  19.002 190.443  0.00  0.00    +0.000 A 
ATOM     18  C   UNL     1      38.647  18.194 189.636  0.00  0.00    +0.000 A 
ATOM     19  C   UNL     1      40.013  18.354 189.650  0.00  0.00    +0.000 A 
ATOM     20  C   UNL     1      40.587  19.345 190.422  0.00  0.00    +0.000 A 
BRANCH  18  21
ATOM     21  O   UNL     1      38.139  17.225 188.841  0.00  0.00    +0.000 OA
ATOM     22  H   UNL     1      37.149  17.129 188.740  0.00  0.00    +0.000 HD
ENDBRANCH  18  21
ENDBRANCH  14  15
ENDBRANCH   1  13
TORSDOF 6
ENDMDL
MODEL 7
REMARK VINA RESULT:    -7.213      1.832      7.081
REMARK INTER + INTRA:          -9.993
REMARK INTER:                  -9.217
REMARK INTRA:                  -0.776
REMARK UNBOUND:                -0.672
REMARK  Name = 
REMARK  7 active torsions:
REMARK  status: ('A' for Active; 'I' for Inactive)
REMARK    1  A    between atoms: C_1  and  O_2
REMARK    2  A    between atoms: O_2  and  C_3
REMARK    3  A    between atoms: C_6  and  C_7
REMARK    4  A    between atoms: C_7  and  C_9
REMARK    5  A    between atoms: C_10  and  C_11
REMARK    6  A    between atoms: C_14  and  O_15
REMARK    7  A    between atoms: C_18  and  O_19
REMARK                            x       y       z     vdW  Elec       q    Type
REMARK                         _______ _______ _______ _____ _____    ______ ____
ROOT
ATOM      1  C   UNL     1      53.581  30.272 196.639  0.00  0.00    +0.000 C 
ATOM      2  O   UNL     1      54.133  29.830 195.583  0.00  0.00    +0.000 OA
ENDROOT
BRANCH   1   6
ATOM      3  C   UNL     1      49.815  28.707 197.948  0.00  0.00    +0.000 A 
ATOM      4  C   UNL     1      50.020  30.065 197.895  0.00  0.00    +0.000 A 
ATOM      5  C   UNL     1      51.237  30.566 197.474  0.00  0.00    +0.000 A 
ATOM      6  C   UNL     1      52.242  29.712 197.089  0.00  0.00    +0.000 A 
ATOM      7  C   UNL     1      52.039  28.350 197.109  0.00  0.00    +0.000 A 
ATOM      8  C   UNL     1      50.819  27.809 197.530  0.00  0.00    +0.000 A 
BRANCH   3  10
ATOM      9  C   UNL     1      48.153  28.654 199.682  0.00  0.00    +0.000 C 
ATOM     10  O   UNL     1      48.614  28.274 198.393  0.00  0.00    +0.000 OA
ENDBRANCH   3  10
BRANCH   7  11
ATOM     11  O   UNL     1      53.083  27.481 196.697  0.00  0.00    +0.000 OA
ATOM     12  H   UNL     1      52.946  26.866 195.921  0.00  0.00    +0.000 HD
ENDBRANCH   7  11
ENDBRANCH   1   6
BRANCH   1  13
ATOM     13  C   UNL     1      54.259  31.363 197.451  0.00  0.00    +0.000 C 
ATOM     14  C   UNL     1      54.665  31.110 198.725  0.00  0.00    +0.000 C 
BRANCH  14  15
ATOM     15  C   UNL     1      55.344  32.200 199.537  0.00  0.00    +0.000 A 
ATOM     16  C   UNL     1      56.719  32.277 199.596  0.00  0.00    +0.000 A 
ATOM     17  C   UNL     1      57.355  33.304 200.299  0.00  0.00    +0.000 A 
ATOM     18  C   UNL     1      56.539  34.267 200.929  0.00  0.00    +0.000 A 
ATOM     19  C   UNL     1      55.168  34.164 200.888  0.00  0.00    +0.000 A 
ATOM     20  C   UNL     1      54.572  33.136 200.183  0.00  0.00    +0.000 A 
BRANCH  18  21
ATOM     21  O   UNL     1      57.066  35.310 201.611  0.00  0.00    +0.000 OA
ATOM     22  H   UNL     1      56.775  36.243 201.399  0.00  0.00    +0.000 HD
ENDBRANCH  18  21
ENDBRANCH  14  15
ENDBRANCH   1  13
TORSDOF 6
ENDMDL
MODEL 8
REMARK VINA RESULT:    -7.042      2.202      7.297
REMARK INTER + INTRA:          -9.772
REMARK INTER:                  -9.065
REMARK INTRA:                  -0.707
REMARK UNBOUND:                -0.672
REMARK  Name = 
REMARK  7 active torsions:
REMARK  status: ('A' for Active; 'I' for Inactive)
REMARK    1  A    between atoms: C_1  and  O_2
REMARK    2  A    between atoms: O_2  and  C_3
REMARK    3  A    between atoms: C_6  and  C_7
REMARK    4  A    between atoms: C_7  and  C_9
REMARK    5  A    between atoms: C_10  and  C_11
REMARK    6  A    between atoms: C_14  and  O_15
REMARK    7  A    between atoms: C_18  and  O_19
REMARK                            x       y       z     vdW  Elec       q    Type
REMARK                         _______ _______ _______ _____ _____    ______ ____
ROOT
ATOM      1  C   UNL     1      53.618  30.515 198.175  0.00  0.00    +0.000 C 
ATOM      2  O   UNL     1      53.999  30.456 196.964  0.00  0.00    +0.000 OA
ENDROOT
BRANCH   1   6
ATOM      3  C   UNL     1      49.868  28.785 199.309  0.00  0.00    +0.000 A 
ATOM      4  C   UNL     1      51.009  28.491 200.018  0.00  0.00    +0.000 A 
ATOM      5  C   UNL     1      52.217  29.050 199.648  0.00  0.00    +0.000 A 
ATOM      6  C   UNL     1      52.282  29.915 198.582  0.00  0.00    +0.000 A 
ATOM      7  C   UNL     1      51.142  30.240 197.883  0.00  0.00    +0.000 A 
ATOM      8  C   UNL     1      49.902  29.692 198.231  0.00  0.00    +0.000 A 
BRANCH   3  10
ATOM      9  C   UNL     1      47.772  28.907 200.478  0.00  0.00    +0.000 C 
ATOM     10  O   UNL     1      48.719  28.188 199.701  0.00  0.00    +0.000 OA
ENDBRANCH   3  10
BRANCH   7  11
ATOM     11  O   UNL     1      51.224  31.144 196.791  0.00  0.00    +0.000 OA
ATOM     12  H   UNL     1      51.161  32.129 196.951  0.00  0.00    +0.000 HD
ENDBRANCH   7  11
ENDBRANCH   1   6
BRANCH   1  13
ATOM     13  C   UNL     1      54.497  31.187 199.216  0.00  0.00    +0.000 C 
ATOM     14  C   UNL     1      54.393  32.525 199.433  0.00  0.00    +0.000 C 
BRANCH  14  15
ATOM     15  C   UNL     1      55.272  33.198 200.475  0.00  0.00    +0.000 A 
ATOM     16  C   UNL     1      56.644  33.192 200.344  0.00  0.00    +0.000 A 
ATOM     17  C   UNL     1      57.460  33.849 201.269  0.00  0.00    +0.000 A 
ATOM     18  C   UNL     1      56.827  34.531 202.330  0.00  0.00    +0.000 A 
ATOM     19  C   UNL     1      55.459  34.505 202.466  0.00  0.00    +0.000 A 
ATOM     20  C   UNL     1      54.682  33.846 201.533  0.00  0.00    +0.000 A 
BRANCH  18  21
ATOM     21  O   UNL     1      57.534  35.215 203.258  0.00  0.00    +0.000 OA
ATOM     22  H   UNL     1      57.058  35.785 203.929  0.00  0.00    +0.000 HD
ENDBRANCH  18  21
ENDBRANCH  14  15
ENDBRANCH   1  13
TORSDOF 6
ENDMDL
MODEL 9
REMARK VINA RESULT:    -6.991     15.357     17.594
REMARK INTER + INTRA:          -9.706
REMARK INTER:                  -9.034
REMARK INTRA:                  -0.672
REMARK UNBOUND:                -0.672
REMARK  Name = 
REMARK  7 active torsions:
REMARK  status: ('A' for Active; 'I' for Inactive)
REMARK    1  A    between atoms: C_1  and  O_2
REMARK    2  A    between atoms: O_2  and  C_3
REMARK    3  A    between atoms: C_6  and  C_7
REMARK    4  A    between atoms: C_7  and  C_9
REMARK    5  A    between atoms: C_10  and  C_11
REMARK    6  A    between atoms: C_14  and  O_15
REMARK    7  A    between atoms: C_18  and  O_19
REMARK                            x       y       z     vdW  Elec       q    Type
REMARK                         _______ _______ _______ _____ _____    ______ ____
ROOT
ATOM      1  C   UNL     1      45.545  36.221 183.637  0.00  0.00    +0.000 C 
ATOM      2  O   UNL     1      45.402  37.068 182.701  0.00  0.00    +0.000 OA
ENDROOT
BRANCH   1   6
ATOM      3  C   UNL     1      43.285  36.631 187.251  0.00  0.00    +0.000 A 
ATOM      4  C   UNL     1      43.575  35.383 186.754  0.00  0.00    +0.000 A 
ATOM      5  C   UNL     1      44.303  35.255 185.586  0.00  0.00    +0.000 A 
ATOM      6  C   UNL     1      44.756  36.372 184.926  0.00  0.00    +0.000 A 
ATOM      7  C   UNL     1      44.498  37.627 185.431  0.00  0.00    +0.000 A 
ATOM      8  C   UNL     1      43.764  37.793 186.611  0.00  0.00    +0.000 A 
BRANCH   3  10
ATOM      9  C   UNL     1      42.707  37.788 189.276  0.00  0.00    +0.000 C 
ATOM     10  O   UNL     1      42.547  36.695 188.383  0.00  0.00    +0.000 OA
ENDBRANCH   3  10
BRANCH   7  11
ATOM     11  O   UNL     1      44.983  38.770 184.744  0.00  0.00    +0.000 OA
ATOM     12  H   UNL     1      44.520  39.092 183.918  0.00  0.00    +0.000 HD
ENDBRANCH   7  11
ENDBRANCH   1   6
BRANCH   1  13
ATOM     13  C   UNL     1      46.508  35.057 183.468  0.00  0.00    +0.000 C 
ATOM     14  C   UNL     1      47.804  35.183 183.862  0.00  0.00    +0.000 C 
BRANCH  14  15
ATOM     15  C   UNL     1      48.767  34.019 183.694  0.00  0.00    +0.000 A 
ATOM     16  C   UNL     1      48.853  33.349 182.493  0.00  0.00    +0.000 A 
ATOM     17  C   UNL     1      49.770  32.309 182.311  0.00  0.00    +0.000 A 
ATOM     18  C   UNL     1      50.613  31.985 183.394  0.00  0.00    +0.000 A 
ATOM     19  C   UNL     1      50.497  32.641 184.597  0.00  0.00    +0.000 A 
ATOM     20  C   UNL     1      49.581  33.665 184.743  0.00  0.00    +0.000 A 
BRANCH  18  21
ATOM     21  O   UNL     1      51.546  31.010 183.303  0.00  0.00    +0.000 OA
ATOM     22  H   UNL     1      52.458  31.154 183.689  0.00  0.00    +0.000 HD
ENDBRANCH  18  21
ENDBRANCH  14  15
ENDBRANCH   1  13
TORSDOF 6
ENDMDL
