MODEL 1
REMARK VINA RESULT:    -6.983      0.000      0.000
REMARK INTER + INTRA:           8.296
REMARK INTER:                  -8.164
REMARK INTRA:                  16.460
REMARK UNBOUND:                16.503
REMARK  Name = 
REMARK  5 active torsions:
REMARK  status: ('A' for Active; 'I' for Inactive)
REMARK    1  A    between atoms: C_1  and  O_2
REMARK    2  A    between atoms: O_2  and  C_3
REMARK    3  A    between atoms: C_6  and  C_7
REMARK    4  A    between atoms: C_19  and  O_20
REMARK    5  A    between atoms: O_20  and  C_21
REMARK                            x       y       z     vdW  Elec       q    Type
REMARK                         _______ _______ _______ _____ _____    ______ ____
ROOT
ATOM      1  C   UNL     1      50.520  30.842 197.377  0.00  0.00    +0.000 A 
ATOM      2  C   UNL     1      49.713  29.879 198.081  0.00  0.00    +0.000 A 
ATOM      3  C   UNL     1      50.332  28.936 198.975  0.00  0.00    +0.000 A 
ATOM      4  O   UNL     1      49.620  28.086 199.596  0.00  0.00    +0.000 OA
ATOM      5  C   UNL     1      51.839  28.955 199.176  0.00  0.00    +0.000 A 
ATOM      6  C   UNL     1      52.474  27.726 199.110  0.00  0.00    +0.000 A 
ATOM      7  C   UNL     1      53.820  27.752 199.545  0.00  0.00    +0.000 A 
ATOM      8  C   UNL     1      54.549  28.848 199.661  0.00  0.00    +0.000 A 
ATOM      9  C   UNL     1      53.869  30.034 199.649  0.00  0.00    +0.000 A 
ATOM     10  C   UNL     1      52.526  30.077 199.362  0.00  0.00    +0.000 A 
ATOM     11  O   UNL     1      49.942  31.724 196.542  0.00  0.00    +0.000 OA
ENDROOT
BRANCH   1  15
ATOM     12  C   UNL     1      54.768  31.059 197.768  0.00  0.00    +0.000 A 
ATOM     13  C   UNL     1      53.990  31.994 198.432  0.00  0.00    +0.000 A 
ATOM     14  C   UNL     1      52.606  31.704 198.415  0.00  0.00    +0.000 A 
ATOM     15  C   UNL     1      52.027  30.862 197.578  0.00  0.00    +0.000 A 
ATOM     16  C   UNL     1      52.856  30.011 196.902  0.00  0.00    +0.000 A 
ATOM     17  C   UNL     1      54.221  30.149 196.972  0.00  0.00    +0.000 A 
BRANCH  12  19
ATOM     18  C   UNL     1      56.760  32.086 198.781  0.00  0.00    +0.000 C 
ATOM     19  O   UNL     1      56.166  31.049 198.014  0.00  0.00    +0.000 OA
ENDBRANCH  12  19
BRANCH  17  20
ATOM     20  O   UNL     1      55.054  29.311 196.184  0.00  0.00    +0.000 OA
ATOM     21  C   UNL     1      54.645  27.985 195.884  0.00  0.00    +0.000 C 
ENDBRANCH  17  20
ENDBRANCH   1  15
TORSDOF 3
ENDMDL
MODEL 2
REMARK VINA RESULT:    -6.955     12.162     14.971
REMARK INTER + INTRA:           8.328
REMARK INTER:                  -8.107
REMARK INTRA:                  16.435
REMARK UNBOUND:                16.503
REMARK  Name = 
REMARK  5 active torsions:
REMARK  status: ('A' for Active; 'I' for Inactive)
REMARK    1  A    between atoms: C_1  and  O_2
REMARK    2  A    between atoms: O_2  and  C_3
REMARK    3  A    between atoms: C_6  and  C_7
REMARK    4  A    between atoms: C_19  and  O_20
REMARK    5  A    between atoms: O_20  and  C_21
REMARK                            x       y       z     vdW  Elec       q    Type
REMARK                         _______ _______ _______ _____ _____    ______ ____
ROOT
ATOM      1  C   UNL     1      44.575  22.902 191.800  0.00  0.00    +0.000 A 
ATOM      2  C   UNL     1      45.510  22.453 192.799  0.00  0.00    +0.000 A 
ATOM      3  C   UNL     1      45.041  21.724 193.948  0.00  0.00    +0.000 A 
ATOM      4  O   UNL     1      45.866  21.328 194.830  0.00  0.00    +0.000 OA
ATOM      5  C   UNL     1      43.558  21.429 194.109  0.00  0.00    +0.000 A 
ATOM      6  C   UNL     1      43.020  21.694 195.357  0.00  0.00    +0.000 A 
ATOM      7  C   UNL     1      41.715  21.179 195.540  0.00  0.00    +0.000 A 
ATOM      8  C   UNL     1      40.913  20.804 194.559  0.00  0.00    +0.000 A 
ATOM      9  C   UNL     1      41.493  20.626 193.334  0.00  0.00    +0.000 A 
ATOM     10  C   UNL     1      42.801  20.983 193.113  0.00  0.00    +0.000 A 
ATOM     11  O   UNL     1      45.012  23.583 190.725  0.00  0.00    +0.000 OA
ENDROOT
BRANCH   1  15
ATOM     12  C   UNL     1      40.368  22.210 192.060  0.00  0.00    +0.000 A 
ATOM     13  C   UNL     1      41.118  21.430 191.195  0.00  0.00    +0.000 A 
ATOM     14  C   UNL     1      42.515  21.589 191.345  0.00  0.00    +0.000 A 
ATOM     15  C   UNL     1      43.092  22.606 191.960  0.00  0.00    +0.000 A 
ATOM     16  C   UNL     1      42.283  23.379 192.745  0.00  0.00    +0.000 A 
ATOM     17  C   UNL     1      40.921  23.198 192.752  0.00  0.00    +0.000 A 
BRANCH  12  19
ATOM     18  C   UNL     1      38.367  20.949 191.384  0.00  0.00    +0.000 C 
ATOM     19  O   UNL     1      38.999  21.883 192.247  0.00  0.00    +0.000 OA
ENDBRANCH  12  19
BRANCH  17  20
ATOM     20  O   UNL     1      40.099  24.077 193.504  0.00  0.00    +0.000 OA
ATOM     21  C   UNL     1      40.633  24.762 194.628  0.00  0.00    +0.000 C 
ENDBRANCH  17  20
ENDBRANCH   1  15
TORSDOF 3
ENDMDL
MODEL 3
REMARK VINA RESULT:    -6.889      1.373      4.766
REMARK INTER + INTRA:           8.407
REMARK INTER:                  -8.083
REMARK INTRA:                  16.490
REMARK UNBOUND:                16.503
REMARK  Name = 
REMARK  5 active torsions:
REMARK  status: ('A' for Active; 'I' for Inactive)
REMARK    1  A    between atoms: C_1  and  O_2
REMARK    2  A    between atoms: O_2  and  C_3
REMARK    3  A    between atoms: C_6  and  C_7
REMARK    4  A    between atoms: C_19  and  O_20
REMARK    5  A    between atoms: O_20  and  C_21
REMARK                            x       y       z     vdW  Elec       q    Type
REMARK                         _______ _______ _______ _____ _____    ______ ____
ROOT
ATOM      1  C   UNL     1      54.270  32.011 198.916  0.00  0.00    +0.000 A 
ATOM      2  C   UNL     1      55.473  31.834 198.143  0.00  0.00    +0.000 A 
ATOM      3  C   UNL     1      55.568  30.757 197.194  0.00  0.00    +0.000 A 
ATOM      4  O   UNL     1      56.630  30.601 196.513  0.00  0.00    +0.000 OA
ATOM      5  C   UNL     1      54.399  29.804 197.005  0.00  0.00    +0.000 A 
ATOM      6  C   UNL     1      54.713  28.455 196.993  0.00  0.00    +0.000 A 
ATOM      7  C   UNL     1      53.650  27.622 196.571  0.00  0.00    +0.000 A 
ATOM      8  C   UNL     1      52.381  27.989 196.533  0.00  0.00    +0.000 A 
ATOM      9  C   UNL     1      52.132  29.330 196.618  0.00  0.00    +0.000 A 
ATOM     10  C   UNL     1      53.142  30.220 196.898  0.00  0.00    +0.000 A 
ATOM     11  O   UNL     1      54.181  33.017 199.803  0.00  0.00    +0.000 OA
ENDROOT
BRANCH   1  15
ATOM     12  C   UNL     1      50.873  29.445 198.564  0.00  0.00    +0.000 A 
ATOM     13  C   UNL     1      50.847  30.675 197.926  0.00  0.00    +0.000 A 
ATOM     14  C   UNL     1      52.092  31.345 197.923  0.00  0.00    +0.000 A 
ATOM     15  C   UNL     1      53.100  31.058 198.727  0.00  0.00    +0.000 A 
ATOM     16  C   UNL     1      53.034  29.860 199.381  0.00  0.00    +0.000 A 
ATOM     17  C   UNL     1      51.899  29.086 199.325  0.00  0.00    +0.000 A 
BRANCH  12  19
ATOM     18  C   UNL     1      48.623  28.618 199.114  0.00  0.00    +0.000 C 
ATOM     19  O   UNL     1      49.804  28.541 198.329  0.00  0.00    +0.000 OA
ENDBRANCH  12  19
BRANCH  17  20
ATOM     20  O   UNL     1      51.824  27.893 200.091  0.00  0.00    +0.000 OA
ATOM     21  C   UNL     1      52.993  27.119 200.316  0.00  0.00    +0.000 C 
ENDBRANCH  17  20
ENDBRANCH   1  15
TORSDOF 3
ENDMDL
MODEL 4
REMARK VINA RESULT:    -6.783     11.905     14.374
REMARK INTER + INTRA:           8.530
REMARK INTER:                  -7.959
REMARK INTRA:                  16.490
REMARK UNBOUND:                16.503
REMARK  Name = 
REMARK  5 active torsions:
REMARK  status: ('A' for Active; 'I' for Inactive)
REMARK    1  A    between atoms: C_1  and  O_2
REMARK    2  A    between atoms: O_2  and  C_3
REMARK    3  A    between atoms: C_6  and  C_7
REMARK    4  A    between atoms: C_19  and  O_20
REMARK    5  A    between atoms: O_20  and  C_21
REMARK                            x       y       z     vdW  Elec       q    Type
REMARK                         _______ _______ _______ _____ _____    ______ ____
ROOT
ATOM      1  C   UNL     1      40.922  20.960 191.199  0.00  0.00    +0.000 A 
ATOM      2  C   UNL     1      39.670  21.665 191.300  0.00  0.00    +0.000 A 
ATOM      3  C   UNL     1      39.570  22.842 192.122  0.00  0.00    +0.000 A 
ATOM      4  O   UNL     1      38.465  23.464 192.211  0.00  0.00    +0.000 OA
ATOM      5  C   UNL     1      40.786  23.343 192.884  0.00  0.00    +0.000 A 
ATOM      6  C   UNL     1      40.576  23.665 194.215  0.00  0.00    +0.000 A 
ATOM      7  C   UNL     1      41.656  24.354 194.816  0.00  0.00    +0.000 A 
ATOM      8  C   UNL     1      42.884  24.390 194.331  0.00  0.00    +0.000 A 
ATOM      9  C   UNL     1      43.037  23.993 193.031  0.00  0.00    +0.000 A 
ATOM     10  C   UNL     1      41.993  23.432 192.336  0.00  0.00    +0.000 A 
ATOM     11  O   UNL     1      41.015  19.860 190.431  0.00  0.00    +0.000 OA
ENDROOT
BRANCH   1  15
ATOM     12  C   UNL     1      44.455  22.169 193.272  0.00  0.00    +0.000 A 
ATOM     13  C   UNL     1      44.347  22.454 191.920  0.00  0.00    +0.000 A 
ATOM     14  C   UNL     1      43.060  22.210 191.385  0.00  0.00    +0.000 A 
ATOM     15  C   UNL     1      42.138  21.460 191.961  0.00  0.00    +0.000 A 
ATOM     16  C   UNL     1      42.338  21.157 193.279  0.00  0.00    +0.000 A 
ATOM     17  C   UNL     1      43.517  21.479 193.908  0.00  0.00    +0.000 A 
BRANCH  12  19
ATOM     18  C   UNL     1      46.779  21.964 194.049  0.00  0.00    +0.000 C 
ATOM     19  O   UNL     1      45.565  22.696 193.984  0.00  0.00    +0.000 OA
ENDBRANCH  12  19
BRANCH  17  20
ATOM     20  O   UNL     1      43.734  21.068 195.249  0.00  0.00    +0.000 OA
ATOM     21  C   UNL     1      42.639  20.980 196.150  0.00  0.00    +0.000 C 
ENDBRANCH  17  20
ENDBRANCH   1  15
TORSDOF 3
ENDMDL
MODEL 5
REMARK VINA RESULT:    -6.643      1.987      3.555
REMARK INTER + INTRA:           8.696
REMARK INTER:                  -7.771
REMARK INTRA:                  16.467
REMARK UNBOUND:                16.503
REMARK  Name = 
REMARK  5 active torsions:
REMARK  status: ('A' for Active; 'I' for Inactive)
REMARK    1  A    between atoms: C_1  and  O_2
REMARK    2  A    between atoms: O_2  and  C_3
REMARK    3  A    between atoms: C_6  and  C_7
REMARK    4  A    between atoms: C_19  and  O_20
REMARK    5  A    between atoms: O_20  and  C_21
REMARK                            x       y       z     vdW  Elec       q    Type
REMARK                         _______ _______ _______ _____ _____    ______ ____
ROOT
ATOM      1  C   UNL     1      54.974  28.568 195.522  0.00  0.00    +0.000 A 
ATOM      2  C   UNL     1      53.637  28.030 195.519  0.00  0.00    +0.000 A 
ATOM      3  C   UNL     1      52.681  28.470 196.500  0.00  0.00    +0.000 A 
ATOM      4  O   UNL     1      51.502  27.995 196.497  0.00  0.00    +0.000 OA
ATOM      5  C   UNL     1      53.081  29.504 197.540  0.00  0.00    +0.000 A 
ATOM      6  C   UNL     1      52.727  29.215 198.848  0.00  0.00    +0.000 A 
ATOM      7  C   UNL     1      52.890  30.301 199.740  0.00  0.00    +0.000 A 
ATOM      8  C   UNL     1      53.630  31.367 199.494  0.00  0.00    +0.000 A 
ATOM      9  C   UNL     1      54.006  31.560 198.194  0.00  0.00    +0.000 A 
ATOM     10  C   UNL     1      53.764  30.602 197.239  0.00  0.00    +0.000 A 
ATOM     11  O   UNL     1      55.868  28.156 194.605  0.00  0.00    +0.000 OA
ENDROOT
BRANCH   1  15
ATOM     12  C   UNL     1      56.319  31.461 198.361  0.00  0.00    +0.000 A 
ATOM     13  C   UNL     1      55.976  31.888 197.089  0.00  0.00    +0.000 A 
ATOM     14  C   UNL     1      55.341  30.897 196.304  0.00  0.00    +0.000 A 
ATOM     15  C   UNL     1      55.373  29.602 196.562  0.00  0.00    +0.000 A 
ATOM     16  C   UNL     1      55.788  29.242 197.814  0.00  0.00    +0.000 A 
ATOM     17  C   UNL     1      56.298  30.174 198.685  0.00  0.00    +0.000 A 
BRANCH  12  19
ATOM     18  C   UNL     1      57.923  33.026 199.374  0.00  0.00    +0.000 C 
ATOM     19  O   UNL     1      56.630  32.441 199.340  0.00  0.00    +0.000 OA
ENDBRANCH  12  19
BRANCH  17  20
ATOM     20  O   UNL     1      56.808  29.756 199.943  0.00  0.00    +0.000 OA
ATOM     21  C   UNL     1      56.052  28.870 200.756  0.00  0.00    +0.000 C 
ENDBRANCH  17  20
ENDBRANCH   1  15
TORSDOF 3
ENDMDL
MODEL 6
REMARK VINA RESULT:    -6.489      1.889      3.232
REMARK INTER + INTRA:           8.876
REMARK INTER:                  -7.627
REMARK INTRA:                  16.503
REMARK UNBOUND:                16.503
REMARK  Name = 
REMARK  5 active torsions:
REMARK  status: ('A' for Active; 'I' for Inactive)
REMARK    1  A    between atoms: C_1  and  O_2
REMARK    2  A    between atoms: O_2  and  C_3
REMARK    3  A    between atoms: C_6  and  C_7
REMARK    4  A    between atoms: C_19  and  O_20
REMARK    5  A    between atoms: O_20  and  C_21
REMARK                            x       y       z     vdW  Elec       q    Type
REMARK                         _______ _______ _______ _____ _____    ______ ____
ROOT
ATOM      1  C   UNL     1      50.442  28.743 200.506  0.00  0.00    +0.000 A 
ATOM      2  C   UNL     1      49.455  28.152 199.639  0.00  0.00    +0.000 A 
ATOM      3  C   UNL     1      49.815  27.758 198.302  0.00  0.00    +0.000 A 
ATOM      4  O   UNL     1      48.944  27.236 197.537  0.00  0.00    +0.000 OA
ATOM      5  C   UNL     1      51.236  27.966 197.804  0.00  0.00    +0.000 A 
ATOM      6  C   UNL     1      51.360  28.541 196.550  0.00  0.00    +0.000 A 
ATOM      7  C   UNL     1      52.671  28.490 196.022  0.00  0.00    +0.000 A 
ATOM      8  C   UNL     1      53.758  28.266 196.738  0.00  0.00    +0.000 A 
ATOM      9  C   UNL     1      53.567  27.762 197.995  0.00  0.00    +0.000 A 
ATOM     10  C   UNL     1      52.305  27.660 198.530  0.00  0.00    +0.000 A 
ATOM     11  O   UNL     1      50.107  29.112 201.755  0.00  0.00    +0.000 OA
ENDROOT
BRANCH   1  15
ATOM     12  C   UNL     1      54.481  29.445 199.309  0.00  0.00    +0.000 A 
ATOM     13  C   UNL     1      54.209  28.361 200.127  0.00  0.00    +0.000 A 
ATOM     14  C   UNL     1      52.829  28.093 200.283  0.00  0.00    +0.000 A 
ATOM     15  C   UNL     1      51.863  28.951 200.008  0.00  0.00    +0.000 A 
ATOM     16  C   UNL     1      52.211  30.037 199.254  0.00  0.00    +0.000 A 
ATOM     17  C   UNL     1      53.527  30.294 198.950  0.00  0.00    +0.000 A 
BRANCH  12  19
ATOM     18  C   UNL     1      56.849  30.012 199.659  0.00  0.00    +0.000 C 
ATOM     19  O   UNL     1      55.799  29.592 198.801  0.00  0.00    +0.000 OA
ENDBRANCH  12  19
BRANCH  17  20
ATOM     20  O   UNL     1      53.867  31.479 198.246  0.00  0.00    +0.000 OA
ATOM     21  C   UNL     1      54.037  32.700 198.952  0.00  0.00    +0.000 C 
ENDBRANCH  17  20
ENDBRANCH   1  15
TORSDOF 3
ENDMDL
MODEL 7
REMARK VINA RESULT:    -6.416      1.863      4.484
REMARK INTER + INTRA:           8.962
REMARK INTER:                  -7.592
REMARK INTRA:                  16.554
REMARK UNBOUND:                16.503
REMARK  Name = 
REMARK  5 active torsions:
REMARK  status: ('A' for Active; 'I' for Inactive)
REMARK    1  A    between atoms: C_1  and  O_2
REMARK    2  A    between atoms: O_2  and  C_3
REMARK    3  A    between atoms: C_6  and  C_7
REMARK    4  A    between atoms: C_19  and  O_20
REMARK    5  A    between atoms: O_20  and  C_21
REMARK                            x       y       z     vdW  Elec       q    Type
REMARK                         _______ _______ _______ _____ _____    ______ ____
ROOT
ATOM      1  C   UNL     1      55.386  29.799 197.410  0.00  0.00    +0.000 A 
ATOM      2  C   UNL     1      55.031  29.664 196.020  0.00  0.00    +0.000 A 
ATOM      3  C   UNL     1      53.677  29.349 195.650  0.00  0.00    +0.000 A 
ATOM      4  O   UNL     1      53.364  29.230 194.423  0.00  0.00    +0.000 OA
ATOM      5  C   UNL     1      52.619  29.160 196.725  0.00  0.00    +0.000 A 
ATOM      6  C   UNL     1      51.812  28.042 196.590  0.00  0.00    +0.000 A 
ATOM      7  C   UNL     1      50.693  28.034 197.456  0.00  0.00    +0.000 A 
ATOM      8  C   UNL     1      50.577  28.786 198.536  0.00  0.00    +0.000 A 
ATOM      9  C   UNL     1      51.448  29.834 198.645  0.00  0.00    +0.000 A 
ATOM     10  C   UNL     1      52.489  29.983 197.760  0.00  0.00    +0.000 A 
ATOM     11  O   UNL     1      56.652  30.093 197.757  0.00  0.00    +0.000 OA
ENDROOT
BRANCH   1  15
ATOM     12  C   UNL     1      52.586  29.281 200.594  0.00  0.00    +0.000 A 
ATOM     13  C   UNL     1      52.965  30.566 200.244  0.00  0.00    +0.000 A 
ATOM     14  C   UNL     1      53.717  30.637 199.048  0.00  0.00    +0.000 A 
ATOM     15  C   UNL     1      54.328  29.610 198.485  0.00  0.00    +0.000 A 
ATOM     16  C   UNL     1      53.959  28.369 198.923  0.00  0.00    +0.000 A 
ATOM     17  C   UNL     1      53.123  28.220 200.004  0.00  0.00    +0.000 A 
BRANCH  12  19
ATOM     18  C   UNL     1      51.804  29.407 202.922  0.00  0.00    +0.000 C 
ATOM     19  O   UNL     1      51.553  29.120 201.554  0.00  0.00    +0.000 OA
ENDBRANCH  12  19
BRANCH  17  20
ATOM     20  O   UNL     1      52.833  26.920 200.494  0.00  0.00    +0.000 OA
ATOM     21  C   UNL     1      53.854  25.933 200.537  0.00  0.00    +0.000 C 
ENDBRANCH  17  20
ENDBRANCH   1  15
TORSDOF 3
ENDMDL
MODEL 8
REMARK VINA RESULT:    -6.364     12.119     14.694
REMARK INTER + INTRA:           9.023
REMARK INTER:                  -7.689
REMARK INTRA:                  16.712
REMARK UNBOUND:                16.503
REMARK  Name = 
REMARK  5 active torsions:
REMARK  status: ('A' for Active; 'I' for Inactive)
REMARK    1  A    between atoms: C_1  and  O_2
REMARK    2  A    between atoms: O_2  and  C_3
REMARK    3  A    between atoms: C_6  and  C_7
REMARK    4  A    between atoms: C_19  and  O_20
REMARK    5  A    between atoms: O_20  and  C_21
REMARK                            x       y       z     vdW  Elec       q    Type
REMARK                         _______ _______ _______ _____ _____    ______ ____
ROOT
ATOM      1  C   UNL     1      45.258  21.772 193.956  0.00  0.00    +0.000 A 
ATOM      2  C   UNL     1      45.438  20.487 194.584  0.00  0.00    +0.000 A 
ATOM      3  C   UNL     1      44.307  19.622 194.789  0.00  0.00    +0.000 A 
ATOM      4  O   UNL     1      44.466  18.488 195.344  0.00  0.00    +0.000 OA
ATOM      5  C   UNL     1      42.922  20.061 194.344  0.00  0.00    +0.000 A 
ATOM      6  C   UNL     1      41.904  19.884 195.267  0.00  0.00    +0.000 A 
ATOM      7  C   UNL     1      40.607  20.069 194.734  0.00  0.00    +0.000 A 
ATOM      8  C   UNL     1      40.346  20.694 193.600  0.00  0.00    +0.000 A 
ATOM      9  C   UNL     1      41.405  20.901 192.761  0.00  0.00    +0.000 A 
ATOM     10  C   UNL     1      42.689  20.622 193.162  0.00  0.00    +0.000 A 
ATOM     11  O   UNL     1      46.315  22.581 193.764  0.00  0.00    +0.000 OA
ENDROOT
BRANCH   1  15
ATOM     12  C   UNL     1      41.459  23.219 192.648  0.00  0.00    +0.000 A 
ATOM     13  C   UNL     1      42.334  22.704 191.706  0.00  0.00    +0.000 A 
ATOM     14  C   UNL     1      43.461  22.057 192.265  0.00  0.00    +0.000 A 
ATOM     15  C   UNL     1      43.873  22.211 193.510  0.00  0.00    +0.000 A 
ATOM     16  C   UNL     1      42.987  22.789 194.376  0.00  0.00    +0.000 A 
ATOM     17  C   UNL     1      41.805  23.327 193.924  0.00  0.00    +0.000 A 
BRANCH  12  19
ATOM     18  C   UNL     1      39.674  23.152 190.957  0.00  0.00    +0.000 C 
ATOM     19  O   UNL     1      40.147  23.567 192.230  0.00  0.00    +0.000 OA
ENDBRANCH  12  19
BRANCH  17  20
ATOM     20  O   UNL     1      40.949  24.004 194.832  0.00  0.00    +0.000 OA
ATOM     21  C   UNL     1      41.085  25.405 195.025  0.00  0.00    +0.000 C 
ENDBRANCH  17  20
ENDBRANCH   1  15
TORSDOF 3
ENDMDL
MODEL 9
REMARK VINA RESULT:    -6.357      1.446      1.945
REMARK INTER + INTRA:           9.032
REMARK INTER:                  -7.638
REMARK INTRA:                  16.670
REMARK UNBOUND:                16.503
REMARK  Name = 
REMARK  5 active torsions:
REMARK  status: ('A' for Active; 'I' for Inactive)
REMARK    1  A    between atoms: C_1  and  O_2
REMARK    2  A    between atoms: O_2  and  C_3
REMARK    3  A    between atoms: C_6  and  C_7
REMARK    4  A    between atoms: C_19  and  O_20
REMARK    5  A    between atoms: O_20  and  C_21
REMARK                            x       y       z     vdW  Elec       q    Type
REMARK                         _______ _______ _______ _____ _____    ______ ____
ROOT
ATOM      1  C   UNL     1      50.277  29.119 199.097  0.00  0.00    +0.000 A 
ATOM      2  C   UNL     1      50.183  28.704 200.473  0.00  0.00    +0.000 A 
ATOM      3  C   UNL     1      51.367  28.637 201.287  0.00  0.00    +0.000 A 
ATOM      4  O   UNL     1      51.285  28.270 202.502  0.00  0.00    +0.000 OA
ATOM      5  C   UNL     1      52.719  29.006 200.696  0.00  0.00    +0.000 A 
ATOM      6  C   UNL     1      53.753  28.121 200.954  0.00  0.00    +0.000 A 
ATOM      7  C   UNL     1      55.032  28.617 200.605  0.00  0.00    +0.000 A 
ATOM      8  C   UNL     1      55.244  29.637 199.792  0.00  0.00    +0.000 A 
ATOM      9  C   UNL     1      54.166  30.433 199.522  0.00  0.00    +0.000 A 
ATOM     10  C   UNL     1      52.905  30.083 199.942  0.00  0.00    +0.000 A 
ATOM     11  O   UNL     1      49.170  29.182 198.335  0.00  0.00    +0.000 OA
ENDROOT
BRANCH   1  15
ATOM     12  C   UNL     1      53.967  30.177 197.224  0.00  0.00    +0.000 A 
ATOM     13  C   UNL     1      53.118  31.189 197.640  0.00  0.00    +0.000 A 
ATOM     14  C   UNL     1      52.038  30.742 198.437  0.00  0.00    +0.000 A 
ATOM     15  C   UNL     1      51.628  29.488 198.505  0.00  0.00    +0.000 A 
ATOM     16  C   UNL     1      52.483  28.540 198.015  0.00  0.00    +0.000 A 
ATOM     17  C   UNL     1      53.624  28.900 197.339  0.00  0.00    +0.000 A 
BRANCH  12  19
ATOM     18  C   UNL     1      55.714  31.869 196.858  0.00  0.00    +0.000 C 
ATOM     19  O   UNL     1      55.250  30.533 196.731  0.00  0.00    +0.000 OA
ENDBRANCH  12  19
BRANCH  17  20
ATOM     20  O   UNL     1      54.443  27.896 196.759  0.00  0.00    +0.000 OA
ATOM     21  C   UNL     1      54.133  27.383 195.472  0.00  0.00    +0.000 C 
ENDBRANCH  17  20
ENDBRANCH   1  15
TORSDOF 3
ENDMDL
