MODEL 1
REMARK VINA RESULT:    -6.287      0.000      0.000
REMARK INTER + INTRA:          -9.479
REMARK INTER:                  -8.755
REMARK INTRA:                  -0.725
REMARK UNBOUND:                -0.620
REMARK  Name = 
REMARK  11 active torsions:
REMARK  status: ('A' for Active; 'I' for Inactive)
REMARK    1  A    between atoms: C_1  and  O_2
REMARK    2  A    between atoms: O_2  and  C_3
REMARK    3  A    between atoms: C_6  and  C_7
REMARK    4  A    between atoms: C_8  and  C_9
REMARK    5  A    between atoms: C_9  and  C_11
REMARK    6  A    between atoms: C_13  and  O_14
REMARK    7  A    between atoms: O_14  and  C_15
REMARK    8  A    between atoms: C_16  and  O_17
REMARK    9  A    between atoms: O_17  and  C_18
REMARK   10  A    between atoms: C_19  and  O_20
REMARK   11  A    between atoms: O_20  and  C_21
REMARK                            x       y       z     vdW  Elec       q    Type
REMARK                         _______ _______ _______ _____ _____    ______ ____
ROOT
ATOM      1  C   UNL     1      55.569  31.442 197.805  0.00  0.00    +0.000 C 
ATOM      2  O   UNL     1      56.046  32.114 196.837  0.00  0.00    +0.000 OA
ENDROOT
BRANCH   1   3
ATOM      3  C   UNL     1      56.404  31.208 199.053  0.00  0.00    +0.000 A 
ATOM      4  C   UNL     1      56.734  29.915 199.421  0.00  0.00    +0.000 A 
ATOM      5  C   UNL     1      57.258  29.808 200.732  0.00  0.00    +0.000 A 
ATOM      6  C   UNL     1      57.738  30.820 201.432  0.00  0.00    +0.000 A 
ATOM      7  C   UNL     1      57.432  32.073 200.978  0.00  0.00    +0.000 A 
ATOM      8  C   UNL     1      56.806  32.252 199.768  0.00  0.00    +0.000 A 
BRANCH   5   9
ATOM      9  O   UNL     1      57.265  28.523 201.337  0.00  0.00    +0.000 OA
ATOM     10  C   UNL     1      56.041  27.902 201.700  0.00  0.00    +0.000 C 
ENDBRANCH   5   9
BRANCH   6  11
ATOM     11  O   UNL     1      58.529  30.617 202.593  0.00  0.00    +0.000 OA
ATOM     12  C   UNL     1      57.909  30.504 203.865  0.00  0.00    +0.000 C 
ENDBRANCH   6  11
BRANCH   7  13
ATOM     13  O   UNL     1      57.767  33.204 201.768  0.00  0.00    +0.000 OA
ATOM     14  C   UNL     1      56.751  33.905 202.470  0.00  0.00    +0.000 C 
ENDBRANCH   7  13
ENDBRANCH   1   3
BRANCH   1  16
ATOM     15  C   UNL     1      53.404  30.752 198.836  0.00  0.00    +0.000 C 
ATOM     16  C   UNL     1      54.163  30.873 197.714  0.00  0.00    +0.000 C 
BRANCH  15  20
ATOM     17  C   UNL     1      49.537  28.982 198.437  0.00  0.00    +0.000 A 
ATOM     18  C   UNL     1      50.409  28.469 199.384  0.00  0.00    +0.000 A 
ATOM     19  C   UNL     1      51.565  29.258 199.585  0.00  0.00    +0.000 A 
ATOM     20  C   UNL     1      51.997  30.182 198.745  0.00  0.00    +0.000 A 
ATOM     21  C   UNL     1      51.112  30.598 197.791  0.00  0.00    +0.000 A 
ATOM     22  C   UNL     1      49.906  29.961 197.619  0.00  0.00    +0.000 A 
BRANCH  17  24
ATOM     23  C   UNL     1      48.036  27.048 198.200  0.00  0.00    +0.000 C 
ATOM     24  O   UNL     1      48.225  28.449 198.338  0.00  0.00    +0.000 OA
ENDBRANCH  17  24
ENDBRANCH  15  20
ENDBRANCH   1  16
TORSDOF 7
ENDMDL
MODEL 2
REMARK VINA RESULT:    -6.269      0.443      2.673
REMARK INTER + INTRA:          -9.455
REMARK INTER:                  -8.693
REMARK INTRA:                  -0.762
REMARK UNBOUND:                -0.620
REMARK  Name = 
REMARK  11 active torsions:
REMARK  status: ('A' for Active; 'I' for Inactive)
REMARK    1  A    between atoms: C_1  and  O_2
REMARK    2  A    between atoms: O_2  and  C_3
REMARK    3  A    between atoms: C_6  and  C_7
REMARK    4  A    between atoms: C_8  and  C_9
REMARK    5  A    between atoms: C_9  and  C_11
REMARK    6  A    between atoms: C_13  and  O_14
REMARK    7  A    between atoms: O_14  and  C_15
REMARK    8  A    between atoms: C_16  and  O_17
REMARK    9  A    between atoms: O_17  and  C_18
REMARK   10  A    between atoms: C_19  and  O_20
REMARK   11  A    between atoms: O_20  and  C_21
REMARK                            x       y       z     vdW  Elec       q    Type
REMARK                         _______ _______ _______ _____ _____    ______ ____
ROOT
ATOM      1  C   UNL     1      55.662  31.353 197.973  0.00  0.00    +0.000 C 
ATOM      2  O   UNL     1      56.210  31.942 196.988  0.00  0.00    +0.000 OA
ENDROOT
BRANCH   1   3
ATOM      3  C   UNL     1      56.380  31.284 199.311  0.00  0.00    +0.000 A 
ATOM      4  C   UNL     1      56.572  32.443 200.044  0.00  0.00    +0.000 A 
ATOM      5  C   UNL     1      57.488  32.300 201.113  0.00  0.00    +0.000 A 
ATOM      6  C   UNL     1      57.866  31.143 201.626  0.00  0.00    +0.000 A 
ATOM      7  C   UNL     1      57.587  30.028 200.885  0.00  0.00    +0.000 A 
ATOM      8  C   UNL     1      56.807  30.108 199.756  0.00  0.00    +0.000 A 
BRANCH   5   9
ATOM      9  O   UNL     1      58.041  33.482 201.672  0.00  0.00    +0.000 OA
ATOM     10  C   UNL     1      57.201  34.411 202.342  0.00  0.00    +0.000 C 
ENDBRANCH   5   9
BRANCH   6  11
ATOM     11  O   UNL     1      58.526  31.061 202.881  0.00  0.00    +0.000 OA
ATOM     12  C   UNL     1      57.787  30.753 204.054  0.00  0.00    +0.000 C 
ENDBRANCH   6  11
BRANCH   7  13
ATOM     13  O   UNL     1      58.111  28.772 201.287  0.00  0.00    +0.000 OA
ATOM     14  C   UNL     1      57.278  27.837 201.959  0.00  0.00    +0.000 C 
ENDBRANCH   7  13
ENDBRANCH   1   3
BRANCH   1  16
ATOM     15  C   UNL     1      53.451  30.637 198.878  0.00  0.00    +0.000 C 
ATOM     16  C   UNL     1      54.291  30.719 197.812  0.00  0.00    +0.000 C 
BRANCH  15  20
ATOM     17  C   UNL     1      49.505  29.031 198.558  0.00  0.00    +0.000 A 
ATOM     18  C   UNL     1      49.896  30.019 197.669  0.00  0.00    +0.000 A 
ATOM     19  C   UNL     1      51.276  30.322 197.718  0.00  0.00    +0.000 A 
ATOM     20  C   UNL     1      52.078  30.002 198.718  0.00  0.00    +0.000 A 
ATOM     21  C   UNL     1      51.608  29.070 199.600  0.00  0.00    +0.000 A 
ATOM     22  C   UNL     1      50.308  28.628 199.536  0.00  0.00    +0.000 A 
BRANCH  17  24
ATOM     23  C   UNL     1      48.105  27.075 198.047  0.00  0.00    +0.000 C 
ATOM     24  O   UNL     1      48.221  28.440 198.423  0.00  0.00    +0.000 OA
ENDBRANCH  17  24
ENDBRANCH  15  20
ENDBRANCH   1  16
TORSDOF 7
ENDMDL
MODEL 3
REMARK VINA RESULT:    -6.250     13.042     17.969
REMARK INTER + INTRA:          -9.428
REMARK INTER:                  -8.683
REMARK INTRA:                  -0.744
REMARK UNBOUND:                -0.620
REMARK  Name = 
REMARK  11 active torsions:
REMARK  status: ('A' for Active; 'I' for Inactive)
REMARK    1  A    between atoms: C_1  and  O_2
REMARK    2  A    between atoms: O_2  and  C_3
REMARK    3  A    between atoms: C_6  and  C_7
REMARK    4  A    between atoms: C_8  and  C_9
REMARK    5  A    between atoms: C_9  and  C_11
REMARK    6  A    between atoms: C_13  and  O_14
REMARK    7  A    between atoms: O_14  and  C_15
REMARK    8  A    between atoms: C_16  and  O_17
REMARK    9  A    between atoms: O_17  and  C_18
REMARK   10  A    between atoms: C_19  and  O_20
REMARK   11  A    between atoms: O_20  and  C_21
REMARK                            x       y       z     vdW  Elec       q    Type
REMARK                         _______ _______ _______ _____ _____    ______ ____
ROOT
ATOM      1  C   UNL     1      40.572  22.947 193.396  0.00  0.00    +0.000 C 
ATOM      2  O   UNL     1      40.088  24.024 193.867  0.00  0.00    +0.000 OA
ENDROOT
BRANCH   1   3
ATOM      3  C   UNL     1      42.062  22.669 193.512  0.00  0.00    +0.000 A 
ATOM      4  C   UNL     1      42.956  23.408 192.756  0.00  0.00    +0.000 A 
ATOM      5  C   UNL     1      44.266  22.874 192.732  0.00  0.00    +0.000 A 
ATOM      6  C   UNL     1      44.731  21.991 193.598  0.00  0.00    +0.000 A 
ATOM      7  C   UNL     1      43.802  21.343 194.364  0.00  0.00    +0.000 A 
ATOM      8  C   UNL     1      42.481  21.723 194.344  0.00  0.00    +0.000 A 
BRANCH   5   9
ATOM      9  O   UNL     1      45.142  23.317 191.706  0.00  0.00    +0.000 OA
ATOM     10  C   UNL     1      44.783  23.146 190.343  0.00  0.00    +0.000 C 
ENDBRANCH   5   9
BRANCH   6  11
ATOM     11  O   UNL     1      46.120  21.730 193.727  0.00  0.00    +0.000 OA
ATOM     12  C   UNL     1      46.921  22.543 194.573  0.00  0.00    +0.000 C 
ENDBRANCH   6  11
BRANCH   7  13
ATOM     13  O   UNL     1      44.208  20.264 195.192  0.00  0.00    +0.000 OA
ATOM     14  C   UNL     1      44.090  18.927 194.725  0.00  0.00    +0.000 C 
ENDBRANCH   7  13
ENDBRANCH   1   3
BRANCH   1  16
ATOM     15  C   UNL     1      40.190  20.989 191.898  0.00  0.00    +0.000 C 
ATOM     16  C   UNL     1      39.662  21.938 192.717  0.00  0.00    +0.000 C 
BRANCH  15  20
ATOM     17  C   UNL     1      37.641  18.284 189.791  0.00  0.00    +0.000 A 
ATOM     18  C   UNL     1      39.013  18.156 189.646  0.00  0.00    +0.000 A 
ATOM     19  C   UNL     1      39.762  18.948 190.547  0.00  0.00    +0.000 A 
ATOM     20  C   UNL     1      39.279  19.979 191.218  0.00  0.00    +0.000 A 
ATOM     21  C   UNL     1      37.918  20.088 191.267  0.00  0.00    +0.000 A 
ATOM     22  C   UNL     1      37.114  19.265 190.516  0.00  0.00    +0.000 A 
BRANCH  17  24
ATOM     23  C   UNL     1      36.585  17.417 187.747  0.00  0.00    +0.000 C 
ATOM     24  O   UNL     1      36.783  17.352 189.151  0.00  0.00    +0.000 OA
ENDBRANCH  17  24
ENDBRANCH  15  20
ENDBRANCH   1  16
TORSDOF 7
ENDMDL
MODEL 4
REMARK VINA RESULT:    -6.099     12.451     19.399
REMARK INTER + INTRA:          -9.215
REMARK INTER:                  -8.496
REMARK INTRA:                  -0.719
REMARK UNBOUND:                -0.620
REMARK  Name = 
REMARK  11 active torsions:
REMARK  status: ('A' for Active; 'I' for Inactive)
REMARK    1  A    between atoms: C_1  and  O_2
REMARK    2  A    between atoms: O_2  and  C_3
REMARK    3  A    between atoms: C_6  and  C_7
REMARK    4  A    between atoms: C_8  and  C_9
REMARK    5  A    between atoms: C_9  and  C_11
REMARK    6  A    between atoms: C_13  and  O_14
REMARK    7  A    between atoms: O_14  and  C_15
REMARK    8  A    between atoms: C_16  and  O_17
REMARK    9  A    between atoms: O_17  and  C_18
REMARK   10  A    between atoms: C_19  and  O_20
REMARK   11  A    between atoms: O_20  and  C_21
REMARK                            x       y       z     vdW  Elec       q    Type
REMARK                         _______ _______ _______ _____ _____    ______ ____
ROOT
ATOM      1  C   UNL     1      39.604  22.588 192.834  0.00  0.00    +0.000 C 
ATOM      2  O   UNL     1      38.791  23.559 192.943  0.00  0.00    +0.000 OA
ENDROOT
BRANCH   1   3
ATOM      3  C   UNL     1      39.085  21.192 192.529  0.00  0.00    +0.000 A 
ATOM      4  C   UNL     1      38.278  20.547 193.451  0.00  0.00    +0.000 A 
ATOM      5  C   UNL     1      38.099  19.167 193.190  0.00  0.00    +0.000 A 
ATOM      6  C   UNL     1      38.341  18.587 192.029  0.00  0.00    +0.000 A 
ATOM      7  C   UNL     1      39.086  19.304 191.134  0.00  0.00    +0.000 A 
ATOM      8  C   UNL     1      39.412  20.617 191.378  0.00  0.00    +0.000 A 
BRANCH   5   9
ATOM      9  O   UNL     1      37.627  18.350 194.251  0.00  0.00    +0.000 OA
ATOM     10  C   UNL     1      38.514  17.941 195.281  0.00  0.00    +0.000 C 
ENDBRANCH   5   9
BRANCH   6  11
ATOM     11  O   UNL     1      37.852  17.289 191.725  0.00  0.00    +0.000 OA
ATOM     12  C   UNL     1      36.587  17.135 191.099  0.00  0.00    +0.000 C 
ENDBRANCH   6  11
BRANCH   7  13
ATOM     13  O   UNL     1      39.530  18.683 189.937  0.00  0.00    +0.000 OA
ATOM     14  C   UNL     1      40.519  17.665 189.990  0.00  0.00    +0.000 C 
ENDBRANCH   7  13
ENDBRANCH   1   3
BRANCH   1  16
ATOM     15  C   UNL     1      41.826  21.994 193.801  0.00  0.00    +0.000 C 
ATOM     16  C   UNL     1      41.095  22.823 193.008  0.00  0.00    +0.000 C 
BRANCH  15  20
ATOM     17  C   UNL     1      45.991  22.610 194.523  0.00  0.00    +0.000 A 
ATOM     18  C   UNL     1      45.532  21.316 194.337  0.00  0.00    +0.000 A 
ATOM     19  C   UNL     1      44.192  21.242 193.891  0.00  0.00    +0.000 A 
ATOM     20  C   UNL     1      43.318  22.229 193.975  0.00  0.00    +0.000 A 
ATOM     21  C   UNL     1      43.828  23.472 194.228  0.00  0.00    +0.000 A 
ATOM     22  C   UNL     1      45.154  23.642 194.543  0.00  0.00    +0.000 A 
BRANCH  17  24
ATOM     23  C   UNL     1      48.322  21.884 194.226  0.00  0.00    +0.000 C 
ATOM     24  O   UNL     1      47.382  22.838 194.697  0.00  0.00    +0.000 OA
ENDBRANCH  17  24
ENDBRANCH  15  20
ENDBRANCH   1  16
TORSDOF 7
ENDMDL
MODEL 5
REMARK VINA RESULT:    -5.980     12.167     19.400
REMARK INTER + INTRA:          -9.047
REMARK INTER:                  -8.360
REMARK INTRA:                  -0.687
REMARK UNBOUND:                -0.620
REMARK  Name = 
REMARK  11 active torsions:
REMARK  status: ('A' for Active; 'I' for Inactive)
REMARK    1  A    between atoms: C_1  and  O_2
REMARK    2  A    between atoms: O_2  and  C_3
REMARK    3  A    between atoms: C_6  and  C_7
REMARK    4  A    between atoms: C_8  and  C_9
REMARK    5  A    between atoms: C_9  and  C_11
REMARK    6  A    between atoms: C_13  and  O_14
REMARK    7  A    between atoms: O_14  and  C_15
REMARK    8  A    between atoms: C_16  and  O_17
REMARK    9  A    between atoms: O_17  and  C_18
REMARK   10  A    between atoms: C_19  and  O_20
REMARK   11  A    between atoms: O_20  and  C_21
REMARK                            x       y       z     vdW  Elec       q    Type
REMARK                         _______ _______ _______ _____ _____    ______ ____
ROOT
ATOM      1  C   UNL     1      40.306  22.493 191.735  0.00  0.00    +0.000 C 
ATOM      2  O   UNL     1      39.651  23.493 191.302  0.00  0.00    +0.000 OA
ENDROOT
BRANCH   1   3
ATOM      3  C   UNL     1      39.650  21.124 191.795  0.00  0.00    +0.000 A 
ATOM      4  C   UNL     1      40.075  20.124 190.936  0.00  0.00    +0.000 A 
ATOM      5  C   UNL     1      39.211  19.004 190.887  0.00  0.00    +0.000 A 
ATOM      6  C   UNL     1      38.293  18.726 191.795  0.00  0.00    +0.000 A 
ATOM      7  C   UNL     1      37.965  19.734 192.658  0.00  0.00    +0.000 A 
ATOM      8  C   UNL     1      38.680  20.908 192.676  0.00  0.00    +0.000 A 
BRANCH   5   9
ATOM      9  O   UNL     1      39.339  18.119 189.784  0.00  0.00    +0.000 OA
ATOM     10  C   UNL     1      40.373  17.147 189.770  0.00  0.00    +0.000 C 
ENDBRANCH   5   9
BRANCH   6  11
ATOM     11  O   UNL     1      37.681  17.447 191.871  0.00  0.00    +0.000 OA
ATOM     12  C   UNL     1      36.439  17.214 191.222  0.00  0.00    +0.000 C 
ENDBRANCH   6  11
BRANCH   7  13
ATOM     13  O   UNL     1      36.872  19.566 193.547  0.00  0.00    +0.000 OA
ATOM     14  C   UNL     1      37.092  19.058 194.855  0.00  0.00    +0.000 C 
ENDBRANCH   7  13
ENDBRANCH   1   3
BRANCH   1  16
ATOM     15  C   UNL     1      42.145  22.154 193.386  0.00  0.00    +0.000 C 
ATOM     16  C   UNL     1      41.744  22.667 192.192  0.00  0.00    +0.000 C 
BRANCH  15  20
ATOM     17  C   UNL     1      46.238  22.740 194.461  0.00  0.00    +0.000 A 
ATOM     18  C   UNL     1      45.349  23.790 194.628  0.00  0.00    +0.000 A 
ATOM     19  C   UNL     1      43.994  23.427 194.452  0.00  0.00    +0.000 A 
ATOM     20  C   UNL     1      43.585  22.328 193.844  0.00  0.00    +0.000 A 
ATOM     21  C   UNL     1      44.526  21.356 193.647  0.00  0.00    +0.000 A 
ATOM     22  C   UNL     1      45.852  21.591 193.918  0.00  0.00    +0.000 A 
BRANCH  17  24
ATOM     23  C   UNL     1      48.597  22.056 194.339  0.00  0.00    +0.000 C 
ATOM     24  O   UNL     1      47.587  22.897 194.876  0.00  0.00    +0.000 OA
ENDBRANCH  17  24
ENDBRANCH  15  20
ENDBRANCH   1  16
TORSDOF 7
ENDMDL
MODEL 6
REMARK VINA RESULT:    -5.949     12.259     19.489
REMARK INTER + INTRA:          -9.003
REMARK INTER:                  -8.235
REMARK INTRA:                  -0.768
REMARK UNBOUND:                -0.620
REMARK  Name = 
REMARK  11 active torsions:
REMARK  status: ('A' for Active; 'I' for Inactive)
REMARK    1  A    between atoms: C_1  and  O_2
REMARK    2  A    between atoms: O_2  and  C_3
REMARK    3  A    between atoms: C_6  and  C_7
REMARK    4  A    between atoms: C_8  and  C_9
REMARK    5  A    between atoms: C_9  and  C_11
REMARK    6  A    between atoms: C_13  and  O_14
REMARK    7  A    between atoms: O_14  and  C_15
REMARK    8  A    between atoms: C_16  and  O_17
REMARK    9  A    between atoms: O_17  and  C_18
REMARK   10  A    between atoms: C_19  and  O_20
REMARK   11  A    between atoms: O_20  and  C_21
REMARK                            x       y       z     vdW  Elec       q    Type
REMARK                         _______ _______ _______ _____ _____    ______ ____
ROOT
ATOM      1  C   UNL     1      39.554  22.682 193.305  0.00  0.00    +0.000 C 
ATOM      2  O   UNL     1      38.781  23.688 193.380  0.00  0.00    +0.000 OA
ENDROOT
BRANCH   1   3
ATOM      3  C   UNL     1      39.043  21.373 192.727  0.00  0.00    +0.000 A 
ATOM      4  C   UNL     1      38.400  21.372 191.500  0.00  0.00    +0.000 A 
ATOM      5  C   UNL     1      37.726  20.162 191.207  0.00  0.00    +0.000 A 
ATOM      6  C   UNL     1      37.949  19.013 191.818  0.00  0.00    +0.000 A 
ATOM      7  C   UNL     1      38.648  19.074 192.991  0.00  0.00    +0.000 A 
ATOM      8  C   UNL     1      39.226  20.249 193.409  0.00  0.00    +0.000 A 
BRANCH   5   9
ATOM      9  O   UNL     1      36.740  20.187 190.185  0.00  0.00    +0.000 OA
ATOM     10  C   UNL     1      36.405  21.412 189.551  0.00  0.00    +0.000 C 
ENDBRANCH   5   9
BRANCH   6  11
ATOM     11  O   UNL     1      37.489  17.781 191.284  0.00  0.00    +0.000 OA
ATOM     12  C   UNL     1      38.206  17.149 190.233  0.00  0.00    +0.000 C 
ENDBRANCH   6  11
BRANCH   7  13
ATOM     13  O   UNL     1      38.779  17.906 193.788  0.00  0.00    +0.000 OA
ATOM     14  C   UNL     1      39.982  17.151 193.750  0.00  0.00    +0.000 C 
ENDBRANCH   7  13
ENDBRANCH   1   3
BRANCH   1  16
ATOM     15  C   UNL     1      42.017  22.503 192.948  0.00  0.00    +0.000 C 
ATOM     16  C   UNL     1      40.989  22.789 193.791  0.00  0.00    +0.000 C 
BRANCH  15  20
ATOM     17  C   UNL     1      45.980  22.717 194.527  0.00  0.00    +0.000 A 
ATOM     18  C   UNL     1      45.533  21.510 194.012  0.00  0.00    +0.000 A 
ATOM     19  C   UNL     1      44.303  21.603 193.322  0.00  0.00    +0.000 A 
ATOM     20  C   UNL     1      43.453  22.609 193.435  0.00  0.00    +0.000 A 
ATOM     21  C   UNL     1      43.936  23.749 194.013  0.00  0.00    +0.000 A 
ATOM     22  C   UNL     1      45.181  23.776 194.594  0.00  0.00    +0.000 A 
BRANCH  17  24
ATOM     23  C   UNL     1      48.366  22.169 194.295  0.00  0.00    +0.000 C 
ATOM     24  O   UNL     1      47.317  22.822 194.994  0.00  0.00    +0.000 OA
ENDBRANCH  17  24
ENDBRANCH  15  20
ENDBRANCH   1  16
TORSDOF 7
ENDMDL
MODEL 7
REMARK VINA RESULT:    -5.912     12.010     17.384
REMARK INTER + INTRA:          -8.952
REMARK INTER:                  -8.631
REMARK INTRA:                  -0.321
REMARK UNBOUND:                -0.620
REMARK  Name = 
REMARK  11 active torsions:
REMARK  status: ('A' for Active; 'I' for Inactive)
REMARK    1  A    between atoms: C_1  and  O_2
REMARK    2  A    between atoms: O_2  and  C_3
REMARK    3  A    between atoms: C_6  and  C_7
REMARK    4  A    between atoms: C_8  and  C_9
REMARK    5  A    between atoms: C_9  and  C_11
REMARK    6  A    between atoms: C_13  and  O_14
REMARK    7  A    between atoms: O_14  and  C_15
REMARK    8  A    between atoms: C_16  and  O_17
REMARK    9  A    between atoms: O_17  and  C_18
REMARK   10  A    between atoms: C_19  and  O_20
REMARK   11  A    between atoms: O_20  and  C_21
REMARK                            x       y       z     vdW  Elec       q    Type
REMARK                         _______ _______ _______ _____ _____    ______ ____
ROOT
ATOM      1  C   UNL     1      41.651  22.562 193.334  0.00  0.00    +0.000 C 
ATOM      2  O   UNL     1      41.409  23.793 193.540  0.00  0.00    +0.000 OA
ENDROOT
BRANCH   1   3
ATOM      3  C   UNL     1      43.024  21.994 193.651  0.00  0.00    +0.000 A 
ATOM      4  C   UNL     1      43.157  20.646 193.937  0.00  0.00    +0.000 A 
ATOM      5  C   UNL     1      44.413  20.297 194.489  0.00  0.00    +0.000 A 
ATOM      6  C   UNL     1      45.495  21.051 194.423  0.00  0.00    +0.000 A 
ATOM      7  C   UNL     1      45.306  22.358 194.069  0.00  0.00    +0.000 A 
ATOM      8  C   UNL     1      44.077  22.803 193.643  0.00  0.00    +0.000 A 
BRANCH   5   9
ATOM      9  O   UNL     1      44.515  19.050 195.161  0.00  0.00    +0.000 OA
ATOM     10  C   UNL     1      44.294  17.841 194.452  0.00  0.00    +0.000 C 
ENDBRANCH   5   9
BRANCH   6  11
ATOM     11  O   UNL     1      46.786  20.531 194.704  0.00  0.00    +0.000 OA
ATOM     12  C   UNL     1      47.669  20.208 193.639  0.00  0.00    +0.000 C 
ENDBRANCH   6  11
BRANCH   7  13
ATOM     13  O   UNL     1      46.394  23.267 194.142  0.00  0.00    +0.000 OA
ATOM     14  C   UNL     1      47.016  23.530 195.392  0.00  0.00    +0.000 C 
ENDBRANCH   7  13
ENDBRANCH   1   3
BRANCH   1  16
ATOM     15  C   UNL     1      40.824  20.882 191.685  0.00  0.00    +0.000 C 
ATOM     16  C   UNL     1      40.566  21.659 192.771  0.00  0.00    +0.000 C 
BRANCH  15  20
ATOM     17  C   UNL     1      37.769  18.482 189.909  0.00  0.00    +0.000 A 
ATOM     18  C   UNL     1      39.089  18.247 189.558  0.00  0.00    +0.000 A 
ATOM     19  C   UNL     1      40.027  18.939 190.358  0.00  0.00    +0.000 A 
ATOM     20  C   UNL     1      39.740  19.978 191.122  0.00  0.00    +0.000 A 
ATOM     21  C   UNL     1      38.415  20.196 191.377  0.00  0.00    +0.000 A 
ATOM     22  C   UNL     1      37.441  19.472 190.732  0.00  0.00    +0.000 A 
BRANCH  17  24
ATOM     23  C   UNL     1      36.676  17.417 187.981  0.00  0.00    +0.000 C 
ATOM     24  O   UNL     1      36.748  17.649 189.380  0.00  0.00    +0.000 OA
ENDBRANCH  17  24
ENDBRANCH  15  20
ENDBRANCH   1  16
TORSDOF 7
ENDMDL
MODEL 8
REMARK VINA RESULT:    -5.896      5.040      8.250
REMARK INTER + INTRA:          -8.928
REMARK INTER:                  -8.283
REMARK INTRA:                  -0.646
REMARK UNBOUND:                -0.620
REMARK  Name = 
REMARK  11 active torsions:
REMARK  status: ('A' for Active; 'I' for Inactive)
REMARK    1  A    between atoms: C_1  and  O_2
REMARK    2  A    between atoms: O_2  and  C_3
REMARK    3  A    between atoms: C_6  and  C_7
REMARK    4  A    between atoms: C_8  and  C_9
REMARK    5  A    between atoms: C_9  and  C_11
REMARK    6  A    between atoms: C_13  and  O_14
REMARK    7  A    between atoms: O_14  and  C_15
REMARK    8  A    between atoms: C_16  and  O_17
REMARK    9  A    between atoms: O_17  and  C_18
REMARK   10  A    between atoms: C_19  and  O_20
REMARK   11  A    between atoms: O_20  and  C_21
REMARK                            x       y       z     vdW  Elec       q    Type
REMARK                         _______ _______ _______ _____ _____    ______ ____
ROOT
ATOM      1  C   UNL     1      54.016  26.744 200.453  0.00  0.00    +0.000 C 
ATOM      2  O   UNL     1      55.040  27.298 200.962  0.00  0.00    +0.000 OA
ENDROOT
BRANCH   1   3
ATOM      3  C   UNL     1      53.036  27.568 199.632  0.00  0.00    +0.000 A 
ATOM      4  C   UNL     1      51.947  28.154 200.255  0.00  0.00    +0.000 A 
ATOM      5  C   UNL     1      50.968  28.644 199.359  0.00  0.00    +0.000 A 
ATOM      6  C   UNL     1      51.176  28.873 198.075  0.00  0.00    +0.000 A 
ATOM      7  C   UNL     1      52.305  28.322 197.533  0.00  0.00    +0.000 A 
ATOM      8  C   UNL     1      53.245  27.714 198.330  0.00  0.00    +0.000 A 
BRANCH   5   9
ATOM      9  O   UNL     1      49.671  28.905 199.875  0.00  0.00    +0.000 OA
ATOM     10  C   UNL     1      48.585  28.059 199.527  0.00  0.00    +0.000 C 
ENDBRANCH   5   9
BRANCH   6  11
ATOM     11  O   UNL     1      50.277  29.650 197.299  0.00  0.00    +0.000 OA
ATOM     12  C   UNL     1      50.437  31.059 197.224  0.00  0.00    +0.000 C 
ENDBRANCH   6  11
BRANCH   7  13
ATOM     13  O   UNL     1      52.507  28.381 196.129  0.00  0.00    +0.000 OA
ATOM     14  C   UNL     1      53.374  29.362 195.577  0.00  0.00    +0.000 C 
ENDBRANCH   7  13
ENDBRANCH   1   3
BRANCH   1  16
ATOM     15  C   UNL     1      54.594  24.345 200.084  0.00  0.00    +0.000 C 
ATOM     16  C   UNL     1      53.770  25.260 200.663  0.00  0.00    +0.000 C 
BRANCH  15  20
ATOM     17  C   UNL     1      54.008  20.191 200.889  0.00  0.00    +0.000 A 
ATOM     18  C   UNL     1      53.080  21.100 201.373  0.00  0.00    +0.000 A 
ATOM     19  C   UNL     1      53.246  22.411 200.870  0.00  0.00    +0.000 A 
ATOM     20  C   UNL     1      54.348  22.859 200.295  0.00  0.00    +0.000 A 
ATOM     21  C   UNL     1      55.255  21.916 199.901  0.00  0.00    +0.000 A 
ATOM     22  C   UNL     1      55.095  20.595 200.242  0.00  0.00    +0.000 A 
BRANCH  17  24
ATOM     23  C   UNL     1      54.108  17.878 200.060  0.00  0.00    +0.000 C 
ATOM     24  O   UNL     1      53.792  18.802 201.090  0.00  0.00    +0.000 OA
ENDBRANCH  17  24
ENDBRANCH  15  20
ENDBRANCH   1  16
TORSDOF 7
ENDMDL
MODEL 9
REMARK VINA RESULT:    -5.875      1.654      2.400
REMARK INTER + INTRA:          -8.899
REMARK INTER:                  -8.279
REMARK INTRA:                  -0.620
REMARK UNBOUND:                -0.620
REMARK  Name = 
REMARK  11 active torsions:
REMARK  status: ('A' for Active; 'I' for Inactive)
REMARK    1  A    between atoms: C_1  and  O_2
REMARK    2  A    between atoms: O_2  and  C_3
REMARK    3  A    between atoms: C_6  and  C_7
REMARK    4  A    between atoms: C_8  and  C_9
REMARK    5  A    between atoms: C_9  and  C_11
REMARK    6  A    between atoms: C_13  and  O_14
REMARK    7  A    between atoms: O_14  and  C_15
REMARK    8  A    between atoms: C_16  and  O_17
REMARK    9  A    between atoms: O_17  and  C_18
REMARK   10  A    between atoms: C_19  and  O_20
REMARK   11  A    between atoms: O_20  and  C_21
REMARK                            x       y       z     vdW  Elec       q    Type
REMARK                         _______ _______ _______ _____ _____    ______ ____
ROOT
ATOM      1  C   UNL     1      55.397  29.558 198.015  0.00  0.00    +0.000 C 
ATOM      2  O   UNL     1      55.914  29.283 196.887  0.00  0.00    +0.000 OA
ENDROOT
BRANCH   1   3
ATOM      3  C   UNL     1      56.186  30.360 199.038  0.00  0.00    +0.000 A 
ATOM      4  C   UNL     1      56.123  30.010 200.376  0.00  0.00    +0.000 A 
ATOM      5  C   UNL     1      56.658  30.987 201.250  0.00  0.00    +0.000 A 
ATOM      6  C   UNL     1      57.463  31.965 200.877  0.00  0.00    +0.000 A 
ATOM      7  C   UNL     1      57.533  32.217 199.535  0.00  0.00    +0.000 A 
ATOM      8  C   UNL     1      56.928  31.381 198.627  0.00  0.00    +0.000 A 
BRANCH   5   9
ATOM      9  O   UNL     1      56.303  30.910 202.623  0.00  0.00    +0.000 OA
ATOM     10  C   UNL     1      55.044  31.398 203.059  0.00  0.00    +0.000 C 
ENDBRANCH   5   9
BRANCH   6  11
ATOM     11  O   UNL     1      58.216  32.714 201.819  0.00  0.00    +0.000 OA
ATOM     12  C   UNL     1      57.729  33.965 202.284  0.00  0.00    +0.000 C 
ENDBRANCH   6  11
BRANCH   7  13
ATOM     13  O   UNL     1      58.241  33.357 199.073  0.00  0.00    +0.000 OA
ATOM     14  C   UNL     1      58.529  33.503 197.690  0.00  0.00    +0.000 C 
ENDBRANCH   7  13
ENDBRANCH   1   3
BRANCH   1  16
ATOM     15  C   UNL     1      53.071  29.967 198.820  0.00  0.00    +0.000 C 
ATOM     16  C   UNL     1      53.990  29.086 198.342  0.00  0.00    +0.000 C 
BRANCH  15  20
ATOM     17  C   UNL     1      49.064  28.863 199.809  0.00  0.00    +0.000 A 
ATOM     18  C   UNL     1      49.314  29.417 198.563  0.00  0.00    +0.000 A 
ATOM     19  C   UNL     1      50.688  29.541 198.256  0.00  0.00    +0.000 A 
ATOM     20  C   UNL     1      51.663  29.495 199.147  0.00  0.00    +0.000 A 
ATOM     21  C   UNL     1      51.337  29.001 200.379  0.00  0.00    +0.000 A 
ATOM     22  C   UNL     1      50.030  28.731 200.710  0.00  0.00    +0.000 A 
BRANCH  17  24
ATOM     23  C   UNL     1      46.817  28.170 199.089  0.00  0.00    +0.000 C 
ATOM     24  O   UNL     1      47.750  28.428 200.127  0.00  0.00    +0.000 OA
ENDBRANCH  17  24
ENDBRANCH  15  20
ENDBRANCH   1  16
TORSDOF 7
ENDMDL
