MODEL 1
REMARK VINA RESULT:    -7.298      0.000      0.000
REMARK INTER + INTRA:          -8.538
REMARK INTER:                  -8.185
REMARK INTRA:                  -0.353
REMARK UNBOUND:                -0.387
REMARK  Name = 
REMARK  3 active torsions:
REMARK  status: ('A' for Active; 'I' for Inactive)
REMARK    1  A    between atoms: C_1  and  O_2
REMARK    2  A    between atoms: O_2  and  C_3
REMARK    3  A    between atoms: C_12  and  C_14
REMARK                            x       y       z     vdW  Elec       q    Type
REMARK                         _______ _______ _______ _____ _____    ______ ____
ROOT
ATOM      1  C   UNL     1      50.067  28.439 200.296  0.00  0.00    +0.000 A 
ATOM      2  C   UNL     1      50.511  28.815 201.545  0.00  0.00    +0.000 A 
ATOM      3  C   UNL     1      51.859  29.077 201.753  0.00  0.00    +0.000 A 
ATOM      4  C   UNL     1      52.771  28.969 200.721  0.00  0.00    +0.000 A 
ATOM      5  C   UNL     1      52.298  28.595 199.474  0.00  0.00    +0.000 A 
ATOM      6  C   UNL     1      50.967  28.318 199.231  0.00  0.00    +0.000 A 
ATOM      7  C   UNL     1      50.509  27.916 197.876  0.00  0.00    +0.000 A 
ATOM      8  O   UNL     1      49.313  27.679 197.698  0.00  0.00    +0.000 OA
ATOM      9  C   UNL     1      51.537  27.866 196.856  0.00  0.00    +0.000 A 
ATOM     10  C   UNL     1      52.859  28.216 197.205  0.00  0.00    +0.000 A 
ATOM     11  O   UNL     1      53.240  28.522 198.463  0.00  0.00    +0.000 OA
ENDROOT
BRANCH  10  12
ATOM     12  C   UNL     1      53.909  28.252 196.106  0.00  0.00    +0.000 A 
ATOM     13  C   UNL     1      54.355  27.063 195.553  0.00  0.00    +0.000 A 
ATOM     14  C   UNL     1      55.523  27.199 194.766  0.00  0.00    +0.000 A 
ATOM     15  C   UNL     1      55.967  28.342 194.278  0.00  0.00    +0.000 A 
ATOM     16  C   UNL     1      55.438  29.481 194.818  0.00  0.00    +0.000 A 
ATOM     17  C   UNL     1      54.382  29.423 195.695  0.00  0.00    +0.000 A 
ENDBRANCH  10  12
BRANCH   1  19
ATOM     18  C   UNL     1      47.742  29.201 200.549  0.00  0.00    +0.000 C 
ATOM     19  O   UNL     1      48.679  28.258 200.052  0.00  0.00    +0.000 OA
ENDBRANCH   1  19
TORSDOF 2
ENDMDL
MODEL 2
REMARK VINA RESULT:    -7.278      1.822      6.403
REMARK INTER + INTRA:          -8.516
REMARK INTER:                  -8.184
REMARK INTRA:                  -0.332
REMARK UNBOUND:                -0.387
REMARK  Name = 
REMARK  3 active torsions:
REMARK  status: ('A' for Active; 'I' for Inactive)
REMARK    1  A    between atoms: C_1  and  O_2
REMARK    2  A    between atoms: O_2  and  C_3
REMARK    3  A    between atoms: C_12  and  C_14
REMARK                            x       y       z     vdW  Elec       q    Type
REMARK                         _______ _______ _______ _____ _____    ______ ____
ROOT
ATOM      1  C   UNL     1      55.424  29.531 197.033  0.00  0.00    +0.000 A 
ATOM      2  C   UNL     1      55.824  28.981 195.834  0.00  0.00    +0.000 A 
ATOM      3  C   UNL     1      54.963  28.149 195.130  0.00  0.00    +0.000 A 
ATOM      4  C   UNL     1      53.700  27.862 195.612  0.00  0.00    +0.000 A 
ATOM      5  C   UNL     1      53.321  28.432 196.815  0.00  0.00    +0.000 A 
ATOM      6  C   UNL     1      54.151  29.257 197.548  0.00  0.00    +0.000 A 
ATOM      7  C   UNL     1      53.700  29.842 198.836  0.00  0.00    +0.000 A 
ATOM      8  O   UNL     1      54.470  30.574 199.461  0.00  0.00    +0.000 OA
ATOM      9  C   UNL     1      52.347  29.508 199.237  0.00  0.00    +0.000 A 
ATOM     10  C   UNL     1      51.569  28.694 198.386  0.00  0.00    +0.000 A 
ATOM     11  O   UNL     1      52.040  28.139 197.250  0.00  0.00    +0.000 OA
ENDROOT
BRANCH  10  12
ATOM     12  C   UNL     1      50.121  28.429 198.769  0.00  0.00    +0.000 A 
ATOM     13  C   UNL     1      49.330  27.651 197.940  0.00  0.00    +0.000 A 
ATOM     14  C   UNL     1      47.949  27.717 198.238  0.00  0.00    +0.000 A 
ATOM     15  C   UNL     1      47.450  28.154 199.380  0.00  0.00    +0.000 A 
ATOM     16  C   UNL     1      48.300  28.857 200.187  0.00  0.00    +0.000 A 
ATOM     17  C   UNL     1      49.639  28.948 199.893  0.00  0.00    +0.000 A 
ENDBRANCH  10  12
BRANCH   1  19
ATOM     18  C   UNL     1      56.536  31.722 197.137  0.00  0.00    +0.000 C 
ATOM     19  O   UNL     1      56.262  30.454 197.713  0.00  0.00    +0.000 OA
ENDBRANCH   1  19
TORSDOF 2
ENDMDL
MODEL 3
REMARK VINA RESULT:    -7.225     10.430     12.255
REMARK INTER + INTRA:          -8.456
REMARK INTER:                  -8.112
REMARK INTRA:                  -0.344
REMARK UNBOUND:                -0.387
REMARK  Name = 
REMARK  3 active torsions:
REMARK  status: ('A' for Active; 'I' for Inactive)
REMARK    1  A    between atoms: C_1  and  O_2
REMARK    2  A    between atoms: O_2  and  C_3
REMARK    3  A    between atoms: C_12  and  C_14
REMARK                            x       y       z     vdW  Elec       q    Type
REMARK                         _______ _______ _______ _____ _____    ______ ____
ROOT
ATOM      1  C   UNL     1      39.928  23.151 193.220  0.00  0.00    +0.000 A 
ATOM      2  C   UNL     1      39.500  24.436 193.477  0.00  0.00    +0.000 A 
ATOM      3  C   UNL     1      40.380  25.365 194.016  0.00  0.00    +0.000 A 
ATOM      4  C   UNL     1      41.688  25.025 194.300  0.00  0.00    +0.000 A 
ATOM      5  C   UNL     1      42.094  23.729 194.026  0.00  0.00    +0.000 A 
ATOM      6  C   UNL     1      41.248  22.775 193.498  0.00  0.00    +0.000 A 
ATOM      7  C   UNL     1      41.730  21.397 193.226  0.00  0.00    +0.000 A 
ATOM      8  O   UNL     1      40.943  20.573 192.753  0.00  0.00    +0.000 OA
ATOM      9  C   UNL     1      43.126  21.150 193.525  0.00  0.00    +0.000 A 
ATOM     10  C   UNL     1      43.913  22.214 194.016  0.00  0.00    +0.000 A 
ATOM     11  O   UNL     1      43.419  23.436 194.301  0.00  0.00    +0.000 OA
ENDROOT
BRANCH  10  12
ATOM     12  C   UNL     1      45.398  21.969 194.235  0.00  0.00    +0.000 A 
ATOM     13  C   UNL     1      46.218  23.032 194.578  0.00  0.00    +0.000 A 
ATOM     14  C   UNL     1      47.600  22.748 194.467  0.00  0.00    +0.000 A 
ATOM     15  C   UNL     1      48.112  21.532 194.408  0.00  0.00    +0.000 A 
ATOM     16  C   UNL     1      47.239  20.517 194.133  0.00  0.00    +0.000 A 
ATOM     17  C   UNL     1      45.884  20.741 194.095  0.00  0.00    +0.000 A 
ENDBRANCH  10  12
BRANCH   1  19
ATOM     18  C   UNL     1      38.625  22.452 191.254  0.00  0.00    +0.000 C 
ATOM     19  O   UNL     1      39.063  22.221 192.585  0.00  0.00    +0.000 OA
ENDBRANCH   1  19
TORSDOF 2
ENDMDL
MODEL 4
REMARK VINA RESULT:    -7.196      2.044      6.277
REMARK INTER + INTRA:          -8.424
REMARK INTER:                  -8.237
REMARK INTRA:                  -0.187
REMARK UNBOUND:                -0.387
REMARK  Name = 
REMARK  3 active torsions:
REMARK  status: ('A' for Active; 'I' for Inactive)
REMARK    1  A    between atoms: C_1  and  O_2
REMARK    2  A    between atoms: O_2  and  C_3
REMARK    3  A    between atoms: C_12  and  C_14
REMARK                            x       y       z     vdW  Elec       q    Type
REMARK                         _______ _______ _______ _____ _____    ______ ____
ROOT
ATOM      1  C   UNL     1      54.651  29.986 196.559  0.00  0.00    +0.000 A 
ATOM      2  C   UNL     1      55.180  31.227 196.841  0.00  0.00    +0.000 A 
ATOM      3  C   UNL     1      54.450  32.139 197.591  0.00  0.00    +0.000 A 
ATOM      4  C   UNL     1      53.192  31.823 198.066  0.00  0.00    +0.000 A 
ATOM      5  C   UNL     1      52.686  30.568 197.773  0.00  0.00    +0.000 A 
ATOM      6  C   UNL     1      53.377  29.637 197.024  0.00  0.00    +0.000 A 
ATOM      7  C   UNL     1      52.789  28.304 196.734  0.00  0.00    +0.000 A 
ATOM      8  O   UNL     1      53.439  27.500 196.062  0.00  0.00    +0.000 OA
ATOM      9  C   UNL     1      51.481  28.058 197.306  0.00  0.00    +0.000 A 
ATOM     10  C   UNL     1      50.885  29.064 198.097  0.00  0.00    +0.000 A 
ATOM     11  O   UNL     1      51.433  30.282 198.289  0.00  0.00    +0.000 OA
ENDROOT
BRANCH  10  12
ATOM     12  C   UNL     1      49.557  28.758 198.771  0.00  0.00    +0.000 A 
ATOM     13  C   UNL     1      48.603  28.021 198.088  0.00  0.00    +0.000 A 
ATOM     14  C   UNL     1      47.320  28.051 198.684  0.00  0.00    +0.000 A 
ATOM     15  C   UNL     1      47.083  28.412 199.932  0.00  0.00    +0.000 A 
ATOM     16  C   UNL     1      48.090  29.078 200.574  0.00  0.00    +0.000 A 
ATOM     17  C   UNL     1      49.332  29.204 200.001  0.00  0.00    +0.000 A 
ENDBRANCH  10  12
BRANCH   1  19
ATOM     18  C   UNL     1      55.618  29.122 194.469  0.00  0.00    +0.000 C 
ATOM     19  O   UNL     1      55.426  29.014 195.872  0.00  0.00    +0.000 OA
ENDBRANCH   1  19
TORSDOF 2
ENDMDL
MODEL 5
REMARK VINA RESULT:    -7.173     10.255     12.185
REMARK INTER + INTRA:          -8.398
REMARK INTER:                  -8.212
REMARK INTRA:                  -0.186
REMARK UNBOUND:                -0.387
REMARK  Name = 
REMARK  3 active torsions:
REMARK  status: ('A' for Active; 'I' for Inactive)
REMARK    1  A    between atoms: C_1  and  O_2
REMARK    2  A    between atoms: O_2  and  C_3
REMARK    3  A    between atoms: C_12  and  C_14
REMARK                            x       y       z     vdW  Elec       q    Type
REMARK                         _______ _______ _______ _____ _____    ______ ____
ROOT
ATOM      1  C   UNL     1      40.188  23.805 192.786  0.00  0.00    +0.000 A 
ATOM      2  C   UNL     1      39.605  23.241 191.672  0.00  0.00    +0.000 A 
ATOM      3  C   UNL     1      40.338  22.379 190.866  0.00  0.00    +0.000 A 
ATOM      4  C   UNL     1      41.651  22.072 191.164  0.00  0.00    +0.000 A 
ATOM      5  C   UNL     1      42.211  22.647 192.292  0.00  0.00    +0.000 A 
ATOM      6  C   UNL     1      41.518  23.515 193.113  0.00  0.00    +0.000 A 
ATOM      7  C   UNL     1      42.164  24.110 194.310  0.00  0.00    +0.000 A 
ATOM      8  O   UNL     1      41.512  24.880 195.019  0.00  0.00    +0.000 OA
ATOM      9  C   UNL     1      43.532  23.697 194.555  0.00  0.00    +0.000 A 
ATOM     10  C   UNL     1      44.128  22.766 193.677  0.00  0.00    +0.000 A 
ATOM     11  O   UNL     1      43.520  22.294 192.569  0.00  0.00    +0.000 OA
ENDROOT
BRANCH  10  12
ATOM     12  C   UNL     1      45.528  22.269 193.998  0.00  0.00    +0.000 A 
ATOM     13  C   UNL     1      46.468  23.158 194.494  0.00  0.00    +0.000 A 
ATOM     14  C   UNL     1      47.793  22.660 194.475  0.00  0.00    +0.000 A 
ATOM     15  C   UNL     1      48.112  21.384 194.359  0.00  0.00    +0.000 A 
ATOM     16  C   UNL     1      47.121  20.546 193.931  0.00  0.00    +0.000 A 
ATOM     17  C   UNL     1      45.828  20.990 193.798  0.00  0.00    +0.000 A 
ENDBRANCH  10  12
BRANCH   1  19
ATOM     18  C   UNL     1      39.097  25.948 193.302  0.00  0.00    +0.000 C 
ATOM     19  O   UNL     1      39.421  24.614 193.665  0.00  0.00    +0.000 OA
ENDBRANCH   1  19
TORSDOF 2
ENDMDL
MODEL 6
REMARK VINA RESULT:    -6.749     16.456     16.953
REMARK INTER + INTRA:          -7.925
REMARK INTER:                  -7.560
REMARK INTRA:                  -0.365
REMARK UNBOUND:                -0.387
REMARK  Name = 
REMARK  3 active torsions:
REMARK  status: ('A' for Active; 'I' for Inactive)
REMARK    1  A    between atoms: C_1  and  O_2
REMARK    2  A    between atoms: O_2  and  C_3
REMARK    3  A    between atoms: C_12  and  C_14
REMARK                            x       y       z     vdW  Elec       q    Type
REMARK                         _______ _______ _______ _____ _____    ______ ____
ROOT
ATOM      1  C   UNL     1      44.659  37.287 184.532  0.00  0.00    +0.000 A 
ATOM      2  C   UNL     1      44.941  38.512 185.096  0.00  0.00    +0.000 A 
ATOM      3  C   UNL     1      46.261  38.899 185.293  0.00  0.00    +0.000 A 
ATOM      4  C   UNL     1      47.305  38.072 184.928  0.00  0.00    +0.000 A 
ATOM      5  C   UNL     1      46.994  36.849 184.357  0.00  0.00    +0.000 A 
ATOM      6  C   UNL     1      45.696  36.426 184.153  0.00  0.00    +0.000 A 
ATOM      7  C   UNL     1      45.414  35.103 183.541  0.00  0.00    +0.000 A 
ATOM      8  O   UNL     1      44.241  34.761 183.374  0.00  0.00    +0.000 OA
ATOM      9  C   UNL     1      46.578  34.326 183.161  0.00  0.00    +0.000 A 
ATOM     10  C   UNL     1      47.860  34.878 183.372  0.00  0.00    +0.000 A 
ATOM     11  O   UNL     1      48.070  36.062 183.983  0.00  0.00    +0.000 OA
ENDROOT
BRANCH  10  12
ATOM     12  C   UNL     1      49.069  34.096 182.882  0.00  0.00    +0.000 A 
ATOM     13  C   UNL     1      48.951  32.733 182.659  0.00  0.00    +0.000 A 
ATOM     14  C   UNL     1      50.191  32.071 182.495  0.00  0.00    +0.000 A 
ATOM     15  C   UNL     1      51.330  32.675 182.210  0.00  0.00    +0.000 A 
ATOM     16  C   UNL     1      51.361  34.030 182.386  0.00  0.00    +0.000 A 
ATOM     17  C   UNL     1      50.217  34.731 182.677  0.00  0.00    +0.000 A 
ENDBRANCH  10  12
BRANCH   1  19
ATOM     18  C   UNL     1      42.352  36.887 185.284  0.00  0.00    +0.000 C 
ATOM     19  O   UNL     1      43.317  36.922 184.243  0.00  0.00    +0.000 OA
ENDBRANCH   1  19
TORSDOF 2
ENDMDL
MODEL 7
REMARK VINA RESULT:    -6.747     12.789     14.663
REMARK INTER + INTRA:          -7.923
REMARK INTER:                  -7.544
REMARK INTRA:                  -0.379
REMARK UNBOUND:                -0.387
REMARK  Name = 
REMARK  3 active torsions:
REMARK  status: ('A' for Active; 'I' for Inactive)
REMARK    1  A    between atoms: C_1  and  O_2
REMARK    2  A    between atoms: O_2  and  C_3
REMARK    3  A    between atoms: C_12  and  C_14
REMARK                            x       y       z     vdW  Elec       q    Type
REMARK                         _______ _______ _______ _____ _____    ______ ____
ROOT
ATOM      1  C   UNL     1      38.604  20.867 191.245  0.00  0.00    +0.000 A 
ATOM      2  C   UNL     1      38.106  19.583 191.310  0.00  0.00    +0.000 A 
ATOM      3  C   UNL     1      38.898  18.556 191.805  0.00  0.00    +0.000 A 
ATOM      4  C   UNL     1      40.187  18.798 192.239  0.00  0.00    +0.000 A 
ATOM      5  C   UNL     1      40.661  20.097 192.168  0.00  0.00    +0.000 A 
ATOM      6  C   UNL     1      39.907  21.143 191.675  0.00  0.00    +0.000 A 
ATOM      7  C   UNL     1      40.462  22.520 191.615  0.00  0.00    +0.000 A 
ATOM      8  O   UNL     1      39.757  23.428 191.169  0.00  0.00    +0.000 OA
ATOM      9  C   UNL     1      41.809  22.675 192.127  0.00  0.00    +0.000 A 
ATOM     10  C   UNL     1      42.470  21.545 192.653  0.00  0.00    +0.000 A 
ATOM     11  O   UNL     1      41.947  20.301 192.636  0.00  0.00    +0.000 OA
ENDROOT
BRANCH  10  12
ATOM     12  C   UNL     1      43.845  21.739 193.273  0.00  0.00    +0.000 A 
ATOM     13  C   UNL     1      44.629  22.806 192.867  0.00  0.00    +0.000 A 
ATOM     14  C   UNL     1      45.978  22.718 193.285  0.00  0.00    +0.000 A 
ATOM     15  C   UNL     1      46.412  21.933 194.254  0.00  0.00    +0.000 A 
ATOM     16  C   UNL     1      45.563  20.940 194.658  0.00  0.00    +0.000 A 
ATOM     17  C   UNL     1      44.272  20.882 194.194  0.00  0.00    +0.000 A 
ENDBRANCH  10  12
BRANCH   1  19
ATOM     18  C   UNL     1      36.595  21.674 190.078  0.00  0.00    +0.000 C 
ATOM     19  O   UNL     1      37.771  21.939 190.826  0.00  0.00    +0.000 OA
ENDBRANCH   1  19
TORSDOF 2
ENDMDL
MODEL 8
REMARK VINA RESULT:    -6.626      3.238      6.340
REMARK INTER + INTRA:          -7.787
REMARK INTER:                  -7.401
REMARK INTRA:                  -0.387
REMARK UNBOUND:                -0.387
REMARK  Name = 
REMARK  3 active torsions:
REMARK  status: ('A' for Active; 'I' for Inactive)
REMARK    1  A    between atoms: C_1  and  O_2
REMARK    2  A    between atoms: O_2  and  C_3
REMARK    3  A    between atoms: C_12  and  C_14
REMARK                            x       y       z     vdW  Elec       q    Type
REMARK                         _______ _______ _______ _____ _____    ______ ____
ROOT
ATOM      1  C   UNL     1      56.239  31.941 198.904  0.00  0.00    +0.000 A 
ATOM      2  C   UNL     1      56.812  32.238 200.122  0.00  0.00    +0.000 A 
ATOM      3  C   UNL     1      56.127  31.961 201.298  0.00  0.00    +0.000 A 
ATOM      4  C   UNL     1      54.871  31.386 201.270  0.00  0.00    +0.000 A 
ATOM      5  C   UNL     1      54.321  31.092 200.033  0.00  0.00    +0.000 A 
ATOM      6  C   UNL     1      54.967  31.359 198.843  0.00  0.00    +0.000 A 
ATOM      7  C   UNL     1      54.333  31.029 197.541  0.00  0.00    +0.000 A 
ATOM      8  O   UNL     1      54.942  31.282 196.500  0.00  0.00    +0.000 OA
ATOM      9  C   UNL     1      53.031  30.397 197.621  0.00  0.00    +0.000 A 
ATOM     10  C   UNL     1      52.485  30.125 198.893  0.00  0.00    +0.000 A 
ATOM     11  O   UNL     1      53.073  30.494 200.050  0.00  0.00    +0.000 OA
ENDROOT
BRANCH  10  12
ATOM     12  C   UNL     1      51.163  29.376 198.964  0.00  0.00    +0.000 A 
ATOM     13  C   UNL     1      50.454  29.137 197.798  0.00  0.00    +0.000 A 
ATOM     14  C   UNL     1      49.124  28.704 198.015  0.00  0.00    +0.000 A 
ATOM     15  C   UNL     1      48.673  28.214 199.155  0.00  0.00    +0.000 A 
ATOM     16  C   UNL     1      49.453  28.423 200.258  0.00  0.00    +0.000 A 
ATOM     17  C   UNL     1      50.711  28.963 200.143  0.00  0.00    +0.000 A 
ENDBRANCH  10  12
BRANCH   1  19
ATOM     18  C   UNL     1      58.143  32.934 197.705  0.00  0.00    +0.000 C 
ATOM     19  O   UNL     1      56.969  32.135 197.701  0.00  0.00    +0.000 OA
ENDBRANCH   1  19
TORSDOF 2
ENDMDL
