MODEL 1
REMARK VINA RESULT:    -7.006      0.000      0.000
REMARK INTER + INTRA:          -9.052
REMARK INTER:                  -8.415
REMARK INTRA:                  -0.637
REMARK UNBOUND:                -0.407
REMARK  Name = 
REMARK  6 active torsions:
REMARK  status: ('A' for Active; 'I' for Inactive)
REMARK    1  A    between atoms: C_1  and  O_2
REMARK    2  A    between atoms: O_2  and  C_3
REMARK    3  A    between atoms: C_6  and  C_7
REMARK    4  A    between atoms: C_8  and  C_9
REMARK    5  A    between atoms: C_11  and  O_12
REMARK    6  A    between atoms: C_14  and  O_15
REMARK                            x       y       z     vdW  Elec       q    Type
REMARK                         _______ _______ _______ _____ _____    ______ ____
ROOT
ATOM      1  C   UNL     1      43.825  38.429 183.655  0.00  0.00    +0.000 C 
ATOM      2  C   UNL     1      42.832  37.776 184.316  0.00  0.00    +0.000 C 
ENDROOT
BRANCH   1   6
ATOM      3  C   UNL     1      47.785  36.900 184.127  0.00  0.00    +0.000 A 
ATOM      4  C   UNL     1      46.996  36.398 183.105  0.00  0.00    +0.000 A 
ATOM      5  C   UNL     1      45.797  37.120 182.899  0.00  0.00    +0.000 A 
ATOM      6  C   UNL     1      45.263  37.951 183.777  0.00  0.00    +0.000 A 
ATOM      7  C   UNL     1      46.073  38.356 184.801  0.00  0.00    +0.000 A 
ATOM      8  C   UNL     1      47.310  37.791 184.990  0.00  0.00    +0.000 A 
BRANCH   3  10
ATOM      9  C   UNL     1      49.511  35.189 183.745  0.00  0.00    +0.000 C 
ATOM     10  O   UNL     1      49.126  36.452 184.268  0.00  0.00    +0.000 OA
ENDBRANCH   3  10
ENDBRANCH   1   6
BRANCH   2  11
ATOM     11  C   UNL     1      43.159  36.567 185.178  0.00  0.00    +0.000 A 
ATOM     12  C   UNL     1      43.307  36.712 186.546  0.00  0.00    +0.000 A 
ATOM     13  C   UNL     1      43.878  35.586 187.184  0.00  0.00    +0.000 A 
ATOM     14  C   UNL     1      43.942  34.378 186.654  0.00  0.00    +0.000 A 
ATOM     15  C   UNL     1      43.719  34.291 185.308  0.00  0.00    +0.000 A 
ATOM     16  C   UNL     1      43.285  35.382 184.593  0.00  0.00    +0.000 A 
BRANCH  13  17
ATOM     17  O   UNL     1      44.420  35.766 188.484  0.00  0.00    +0.000 OA
ATOM     18  H   UNL     1      44.112  35.187 189.239  0.00  0.00    +0.000 HD
ENDBRANCH  13  17
BRANCH  15  19
ATOM     19  O   UNL     1      43.938  33.058 184.640  0.00  0.00    +0.000 OA
ATOM     20  H   UNL     1      43.722  32.195 185.098  0.00  0.00    +0.000 HD
ENDBRANCH  15  19
ENDBRANCH   2  11
TORSDOF 5
ENDMDL
MODEL 2
REMARK VINA RESULT:    -6.798     15.172     17.056
REMARK INTER + INTRA:          -8.795
REMARK INTER:                  -8.730
REMARK INTRA:                  -0.065
REMARK UNBOUND:                -0.407
REMARK  Name = 
REMARK  6 active torsions:
REMARK  status: ('A' for Active; 'I' for Inactive)
REMARK    1  A    between atoms: C_1  and  O_2
REMARK    2  A    between atoms: O_2  and  C_3
REMARK    3  A    between atoms: C_6  and  C_7
REMARK    4  A    between atoms: C_8  and  C_9
REMARK    5  A    between atoms: C_11  and  O_12
REMARK    6  A    between atoms: C_14  and  O_15
REMARK                            x       y       z     vdW  Elec       q    Type
REMARK                         _______ _______ _______ _____ _____    ______ ____
ROOT
ATOM      1  C   UNL     1      53.333  31.777 197.950  0.00  0.00    +0.000 C 
ATOM      2  C   UNL     1      54.369  31.262 197.235  0.00  0.00    +0.000 C 
ENDROOT
BRANCH   1   6
ATOM      3  C   UNL     1      50.117  29.120 198.866  0.00  0.00    +0.000 A 
ATOM      4  C   UNL     1      51.236  29.115 199.681  0.00  0.00    +0.000 A 
ATOM      5  C   UNL     1      52.138  30.174 199.425  0.00  0.00    +0.000 A 
ATOM      6  C   UNL     1      52.150  30.895 198.318  0.00  0.00    +0.000 A 
ATOM      7  C   UNL     1      51.043  30.805 197.521  0.00  0.00    +0.000 A 
ATOM      8  C   UNL     1      50.058  29.884 197.781  0.00  0.00    +0.000 A 
BRANCH   3  10
ATOM      9  C   UNL     1      48.012  28.751 200.084  0.00  0.00    +0.000 C 
ATOM     10  O   UNL     1      49.008  28.290 199.184  0.00  0.00    +0.000 OA
ENDBRANCH   3  10
ENDBRANCH   1   6
BRANCH   2  11
ATOM     11  C   UNL     1      54.345  29.805 196.803  0.00  0.00    +0.000 A 
ATOM     12  C   UNL     1      54.320  29.483 195.457  0.00  0.00    +0.000 A 
ATOM     13  C   UNL     1      54.019  28.125 195.197  0.00  0.00    +0.000 A 
ATOM     14  C   UNL     1      54.106  27.155 196.091  0.00  0.00    +0.000 A 
ATOM     15  C   UNL     1      54.196  27.539 197.399  0.00  0.00    +0.000 A 
ATOM     16  C   UNL     1      54.361  28.862 197.737  0.00  0.00    +0.000 A 
BRANCH  13  17
ATOM     17  O   UNL     1      53.595  27.780 193.887  0.00  0.00    +0.000 OA
ATOM     18  H   UNL     1      52.762  27.243 193.756  0.00  0.00    +0.000 HD
ENDBRANCH  13  17
BRANCH  15  19
ATOM     19  O   UNL     1      54.120  26.559 198.424  0.00  0.00    +0.000 OA
ATOM     20  H   UNL     1      54.064  25.590 198.186  0.00  0.00    +0.000 HD
ENDBRANCH  15  19
ENDBRANCH   2  11
TORSDOF 5
ENDMDL
MODEL 3
REMARK VINA RESULT:    -6.708     15.912     17.824
REMARK INTER + INTRA:          -8.683
REMARK INTER:                  -8.147
REMARK INTRA:                  -0.536
REMARK UNBOUND:                -0.407
REMARK  Name = 
REMARK  6 active torsions:
REMARK  status: ('A' for Active; 'I' for Inactive)
REMARK    1  A    between atoms: C_1  and  O_2
REMARK    2  A    between atoms: O_2  and  C_3
REMARK    3  A    between atoms: C_6  and  C_7
REMARK    4  A    between atoms: C_8  and  C_9
REMARK    5  A    between atoms: C_11  and  O_12
REMARK    6  A    between atoms: C_14  and  O_15
REMARK                            x       y       z     vdW  Elec       q    Type
REMARK                         _______ _______ _______ _____ _____    ______ ____
ROOT
ATOM      1  C   UNL     1      52.122  30.360 198.229  0.00  0.00    +0.000 C 
ATOM      2  C   UNL     1      50.845  30.337 197.762  0.00  0.00    +0.000 C 
ENDROOT
BRANCH   1   6
ATOM      3  C   UNL     1      53.357  27.045 200.622  0.00  0.00    +0.000 A 
ATOM      4  C   UNL     1      53.508  26.966 199.249  0.00  0.00    +0.000 A 
ATOM      5  C   UNL     1      53.277  28.188 198.574  0.00  0.00    +0.000 A 
ATOM      6  C   UNL     1      52.636  29.220 199.093  0.00  0.00    +0.000 A 
ATOM      7  C   UNL     1      52.460  29.206 200.449  0.00  0.00    +0.000 A 
ATOM      8  C   UNL     1      52.782  28.098 201.193  0.00  0.00    +0.000 A 
BRANCH   3  10
ATOM      9  C   UNL     1      54.875  25.147 201.002  0.00  0.00    +0.000 C 
ATOM     10  O   UNL     1      53.816  25.982 201.445  0.00  0.00    +0.000 OA
ENDBRANCH   3  10
ENDBRANCH   1   6
BRANCH   2  11
ATOM     11  C   UNL     1      49.931  29.172 198.103  0.00  0.00    +0.000 A 
ATOM     12  C   UNL     1      49.815  28.104 197.231  0.00  0.00    +0.000 A 
ATOM     13  C   UNL     1      48.738  27.236 197.526  0.00  0.00    +0.000 A 
ATOM     14  C   UNL     1      48.111  27.189 198.688  0.00  0.00    +0.000 A 
ATOM     15  C   UNL     1      48.319  28.242 199.535  0.00  0.00    +0.000 A 
ATOM     16  C   UNL     1      49.263  29.200 199.251  0.00  0.00    +0.000 A 
BRANCH  13  17
ATOM     17  O   UNL     1      48.300  26.354 196.503  0.00  0.00    +0.000 OA
ATOM     18  H   UNL     1      48.954  25.749 196.050  0.00  0.00    +0.000 HD
ENDBRANCH  13  17
BRANCH  15  19
ATOM     19  O   UNL     1      47.551  28.347 200.724  0.00  0.00    +0.000 OA
ATOM     20  H   UNL     1      47.477  29.225 201.196  0.00  0.00    +0.000 HD
ENDBRANCH  15  19
ENDBRANCH   2  11
TORSDOF 5
ENDMDL
MODEL 4
REMARK VINA RESULT:    -6.694     15.557     17.608
REMARK INTER + INTRA:          -8.667
REMARK INTER:                  -7.998
REMARK INTRA:                  -0.669
REMARK UNBOUND:                -0.407
REMARK  Name = 
REMARK  6 active torsions:
REMARK  status: ('A' for Active; 'I' for Inactive)
REMARK    1  A    between atoms: C_1  and  O_2
REMARK    2  A    between atoms: O_2  and  C_3
REMARK    3  A    between atoms: C_6  and  C_7
REMARK    4  A    between atoms: C_8  and  C_9
REMARK    5  A    between atoms: C_11  and  O_12
REMARK    6  A    between atoms: C_14  and  O_15
REMARK                            x       y       z     vdW  Elec       q    Type
REMARK                         _______ _______ _______ _____ _____    ______ ____
ROOT
ATOM      1  C   UNL     1      53.296  29.541 195.479  0.00  0.00    +0.000 C 
ATOM      2  C   UNL     1      54.463  30.223 195.632  0.00  0.00    +0.000 C 
ENDROOT
BRANCH   1   6
ATOM      3  C   UNL     1      51.087  28.685 199.033  0.00  0.00    +0.000 A 
ATOM      4  C   UNL     1      50.843  29.875 198.369  0.00  0.00    +0.000 A 
ATOM      5  C   UNL     1      51.460  29.961 197.099  0.00  0.00    +0.000 A 
ATOM      6  C   UNL     1      52.456  29.191 196.697  0.00  0.00    +0.000 A 
ATOM      7  C   UNL     1      52.689  28.065 197.436  0.00  0.00    +0.000 A 
ATOM      8  C   UNL     1      52.031  27.848 198.621  0.00  0.00    +0.000 A 
BRANCH   3  10
ATOM      9  C   UNL     1      48.951  28.711 200.254  0.00  0.00    +0.000 C 
ATOM     10  O   UNL     1      50.323  28.349 200.183  0.00  0.00    +0.000 OA
ENDBRANCH   3  10
ENDBRANCH   1   6
BRANCH   2  11
ATOM     11  C   UNL     1      54.928  30.636 197.019  0.00  0.00    +0.000 A 
ATOM     12  C   UNL     1      55.803  29.828 197.725  0.00  0.00    +0.000 A 
ATOM     13  C   UNL     1      55.933  30.178 199.090  0.00  0.00    +0.000 A 
ATOM     14  C   UNL     1      55.576  31.343 199.601  0.00  0.00    +0.000 A 
ATOM     15  C   UNL     1      54.765  32.125 198.826  0.00  0.00    +0.000 A 
ATOM     16  C   UNL     1      54.487  31.782 197.524  0.00  0.00    +0.000 A 
BRANCH  13  17
ATOM     17  O   UNL     1      56.484  29.211 199.971  0.00  0.00    +0.000 OA
ATOM     18  H   UNL     1      57.158  28.555 199.634  0.00  0.00    +0.000 HD
ENDBRANCH  13  17
BRANCH  15  19
ATOM     19  O   UNL     1      54.204  33.309 199.373  0.00  0.00    +0.000 OA
ATOM     20  H   UNL     1      54.368  34.191 198.931  0.00  0.00    +0.000 HD
ENDBRANCH  15  19
ENDBRANCH   2  11
TORSDOF 5
ENDMDL
MODEL 5
REMARK VINA RESULT:    -6.661     15.056     16.670
REMARK INTER + INTRA:          -8.626
REMARK INTER:                  -8.147
REMARK INTRA:                  -0.479
REMARK UNBOUND:                -0.407
REMARK  Name = 
REMARK  6 active torsions:
REMARK  status: ('A' for Active; 'I' for Inactive)
REMARK    1  A    between atoms: C_1  and  O_2
REMARK    2  A    between atoms: O_2  and  C_3
REMARK    3  A    between atoms: C_6  and  C_7
REMARK    4  A    between atoms: C_8  and  C_9
REMARK    5  A    between atoms: C_11  and  O_12
REMARK    6  A    between atoms: C_14  and  O_15
REMARK                            x       y       z     vdW  Elec       q    Type
REMARK                         _______ _______ _______ _____ _____    ______ ____
ROOT
ATOM      1  C   UNL     1      41.786  24.902 192.690  0.00  0.00    +0.000 C 
ATOM      2  C   UNL     1      40.557  24.551 192.225  0.00  0.00    +0.000 C 
ENDROOT
BRANCH   1   6
ATOM      3  C   UNL     1      44.688  22.058 194.005  0.00  0.00    +0.000 A 
ATOM      4  C   UNL     1      43.769  22.541 194.920  0.00  0.00    +0.000 A 
ATOM      5  C   UNL     1      42.726  23.300 194.340  0.00  0.00    +0.000 A 
ATOM      6  C   UNL     1      42.768  23.828 193.129  0.00  0.00    +0.000 A 
ATOM      7  C   UNL     1      43.743  23.357 192.295  0.00  0.00    +0.000 A 
ATOM      8  C   UNL     1      44.720  22.510 192.756  0.00  0.00    +0.000 A 
BRANCH   3  10
ATOM      9  C   UNL     1      46.996  21.207 194.058  0.00  0.00    +0.000 C 
ATOM     10  O   UNL     1      45.625  21.066 194.401  0.00  0.00    +0.000 OA
ENDBRANCH   3  10
ENDBRANCH   1   6
BRANCH   2  11
ATOM     11  C   UNL     1      40.164  23.085 192.144  0.00  0.00    +0.000 A 
ATOM     12  C   UNL     1      39.349  22.532 193.117  0.00  0.00    +0.000 A 
ATOM     13  C   UNL     1      39.291  21.119 193.082  0.00  0.00    +0.000 A 
ATOM     14  C   UNL     1      39.651  20.381 192.047  0.00  0.00    +0.000 A 
ATOM     15  C   UNL     1      40.398  21.003 191.086  0.00  0.00    +0.000 A 
ATOM     16  C   UNL     1      40.608  22.361 191.124  0.00  0.00    +0.000 A 
BRANCH  13  17
ATOM     17  O   UNL     1      38.813  20.447 194.238  0.00  0.00    +0.000 OA
ATOM     18  H   UNL     1      37.831  20.303 194.362  0.00  0.00    +0.000 HD
ENDBRANCH  13  17
BRANCH  15  19
ATOM     19  O   UNL     1      40.964  20.236 190.033  0.00  0.00    +0.000 OA
ATOM     20  H   UNL     1      40.665  19.294 189.884  0.00  0.00    +0.000 HD
ENDBRANCH  15  19
ENDBRANCH   2  11
TORSDOF 5
ENDMDL
MODEL 6
REMARK VINA RESULT:    -6.640     14.801     17.151
REMARK INTER + INTRA:          -8.601
REMARK INTER:                  -8.067
REMARK INTRA:                  -0.533
REMARK UNBOUND:                -0.407
REMARK  Name = 
REMARK  6 active torsions:
REMARK  status: ('A' for Active; 'I' for Inactive)
REMARK    1  A    between atoms: C_1  and  O_2
REMARK    2  A    between atoms: O_2  and  C_3
REMARK    3  A    between atoms: C_6  and  C_7
REMARK    4  A    between atoms: C_8  and  C_9
REMARK    5  A    between atoms: C_11  and  O_12
REMARK    6  A    between atoms: C_14  and  O_15
REMARK                            x       y       z     vdW  Elec       q    Type
REMARK                         _______ _______ _______ _____ _____    ______ ____
ROOT
ATOM      1  C   UNL     1      42.746  22.694 192.140  0.00  0.00    +0.000 C 
ATOM      2  C   UNL     1      42.773  23.933 192.700  0.00  0.00    +0.000 C 
ENDROOT
BRANCH   1   6
ATOM      3  C   UNL     1      39.102  20.495 192.500  0.00  0.00    +0.000 A 
ATOM      4  C   UNL     1      39.299  21.276 191.374  0.00  0.00    +0.000 A 
ATOM      5  C   UNL     1      40.614  21.783 191.248  0.00  0.00    +0.000 A 
ATOM      6  C   UNL     1      41.489  21.844 192.236  0.00  0.00    +0.000 A 
ATOM      7  C   UNL     1      41.204  21.102 193.348  0.00  0.00    +0.000 A 
ATOM      8  C   UNL     1      39.992  20.472 193.485  0.00  0.00    +0.000 A 
BRANCH   3  10
ATOM      9  C   UNL     1      37.142  19.429 191.464  0.00  0.00    +0.000 C 
ATOM     10  O   UNL     1      37.926  19.707 192.615  0.00  0.00    +0.000 OA
ENDBRANCH   3  10
ENDBRANCH   1   6
BRANCH   2  11
ATOM     11  C   UNL     1      41.547  24.469 193.423  0.00  0.00    +0.000 A 
ATOM     12  C   UNL     1      40.484  24.978 192.698  0.00  0.00    +0.000 A 
ATOM     13  C   UNL     1      39.545  25.690 193.481  0.00  0.00    +0.000 A 
ATOM     14  C   UNL     1      39.445  25.600 194.795  0.00  0.00    +0.000 A 
ATOM     15  C   UNL     1      40.499  25.026 195.448  0.00  0.00    +0.000 A 
ATOM     16  C   UNL     1      41.519  24.425 194.750  0.00  0.00    +0.000 A 
BRANCH  13  17
ATOM     17  O   UNL     1      38.648  26.561 192.808  0.00  0.00    +0.000 OA
ATOM     18  H   UNL     1      38.949  27.474 192.533  0.00  0.00    +0.000 HD
ENDBRANCH  13  17
BRANCH  15  19
ATOM     19  O   UNL     1      40.541  25.048 196.867  0.00  0.00    +0.000 OA
ATOM     20  H   UNL     1      40.087  24.328 197.392  0.00  0.00    +0.000 HD
ENDBRANCH  15  19
ENDBRANCH   2  11
TORSDOF 5
ENDMDL
MODEL 7
REMARK VINA RESULT:    -6.637     15.096     16.819
REMARK INTER + INTRA:          -8.596
REMARK INTER:                  -8.108
REMARK INTRA:                  -0.488
REMARK UNBOUND:                -0.407
REMARK  Name = 
REMARK  6 active torsions:
REMARK  status: ('A' for Active; 'I' for Inactive)
REMARK    1  A    between atoms: C_1  and  O_2
REMARK    2  A    between atoms: O_2  and  C_3
REMARK    3  A    between atoms: C_6  and  C_7
REMARK    4  A    between atoms: C_8  and  C_9
REMARK    5  A    between atoms: C_11  and  O_12
REMARK    6  A    between atoms: C_14  and  O_15
REMARK                            x       y       z     vdW  Elec       q    Type
REMARK                         _______ _______ _______ _____ _____    ______ ____
ROOT
ATOM      1  C   UNL     1      41.701  24.901 192.684  0.00  0.00    +0.000 C 
ATOM      2  C   UNL     1      40.538  24.427 192.164  0.00  0.00    +0.000 C 
ENDROOT
BRANCH   1   6
ATOM      3  C   UNL     1      44.470  22.009 194.172  0.00  0.00    +0.000 A 
ATOM      4  C   UNL     1      44.581  22.419 192.854  0.00  0.00    +0.000 A 
ATOM      5  C   UNL     1      43.766  23.528 192.527  0.00  0.00    +0.000 A 
ATOM      6  C   UNL     1      42.734  23.936 193.244  0.00  0.00    +0.000 A 
ATOM      7  C   UNL     1      42.644  23.442 194.516  0.00  0.00    +0.000 A 
ATOM      8  C   UNL     1      43.488  22.450 194.950  0.00  0.00    +0.000 A 
BRANCH   3  10
ATOM      9  C   UNL     1      46.767  21.137 194.278  0.00  0.00    +0.000 C 
ATOM     10  O   UNL     1      45.415  21.094 194.708  0.00  0.00    +0.000 OA
ENDBRANCH   3  10
ENDBRANCH   1   6
BRANCH   2  11
ATOM     11  C   UNL     1      40.269  22.931 192.141  0.00  0.00    +0.000 A 
ATOM     12  C   UNL     1      40.906  22.126 191.213  0.00  0.00    +0.000 A 
ATOM     13  C   UNL     1      40.364  20.823 191.115  0.00  0.00    +0.000 A 
ATOM     14  C   UNL     1      39.589  20.264 192.028  0.00  0.00    +0.000 A 
ATOM     15  C   UNL     1      39.044  21.103 192.959  0.00  0.00    +0.000 A 
ATOM     16  C   UNL     1      39.426  22.421 193.032  0.00  0.00    +0.000 A 
BRANCH  13  17
ATOM     17  O   UNL     1      40.674  20.062 189.957  0.00  0.00    +0.000 OA
ATOM     18  H   UNL     1      40.101  20.137 189.142  0.00  0.00    +0.000 HD
ENDBRANCH  13  17
BRANCH  15  19
ATOM     19  O   UNL     1      38.069  20.605 193.864  0.00  0.00    +0.000 OA
ATOM     20  H   UNL     1      37.348  19.995 193.537  0.00  0.00    +0.000 HD
ENDBRANCH  15  19
ENDBRANCH   2  11
TORSDOF 5
ENDMDL
MODEL 8
REMARK VINA RESULT:    -6.614     15.867     17.810
REMARK INTER + INTRA:          -8.568
REMARK INTER:                  -8.014
REMARK INTRA:                  -0.553
REMARK UNBOUND:                -0.407
REMARK  Name = 
REMARK  6 active torsions:
REMARK  status: ('A' for Active; 'I' for Inactive)
REMARK    1  A    between atoms: C_1  and  O_2
REMARK    2  A    between atoms: O_2  and  C_3
REMARK    3  A    between atoms: C_6  and  C_7
REMARK    4  A    between atoms: C_8  and  C_9
REMARK    5  A    between atoms: C_11  and  O_12
REMARK    6  A    between atoms: C_14  and  O_15
REMARK                            x       y       z     vdW  Elec       q    Type
REMARK                         _______ _______ _______ _____ _____    ______ ____
ROOT
ATOM      1  C   UNL     1      51.211  28.177 197.827  0.00  0.00    +0.000 C 
ATOM      2  C   UNL     1      51.529  28.087 196.507  0.00  0.00    +0.000 C 
ENDROOT
BRANCH   1   6
ATOM      3  C   UNL     1      54.329  29.391 200.482  0.00  0.00    +0.000 A 
ATOM      4  C   UNL     1      53.485  30.358 199.962  0.00  0.00    +0.000 A 
ATOM      5  C   UNL     1      52.363  29.833 199.277  0.00  0.00    +0.000 A 
ATOM      6  C   UNL     1      52.270  28.590 198.837  0.00  0.00    +0.000 A 
ATOM      7  C   UNL     1      53.176  27.698 199.338  0.00  0.00    +0.000 A 
ATOM      8  C   UNL     1      54.223  28.118 200.120  0.00  0.00    +0.000 A 
BRANCH   3  10
ATOM      9  C   UNL     1      56.199  30.851 201.131  0.00  0.00    +0.000 C 
ATOM     10  O   UNL     1      55.335  29.760 201.414  0.00  0.00    +0.000 OA
ENDBRANCH   3  10
ENDBRANCH   1   6
BRANCH   2  11
ATOM     11  C   UNL     1      52.942  28.397 196.042  0.00  0.00    +0.000 A 
ATOM     12  C   UNL     1      53.802  27.367 195.704  0.00  0.00    +0.000 A 
ATOM     13  C   UNL     1      55.151  27.769 195.562  0.00  0.00    +0.000 A 
ATOM     14  C   UNL     1      55.546  29.019 195.394  0.00  0.00    +0.000 A 
ATOM     15  C   UNL     1      54.628  29.990 195.680  0.00  0.00    +0.000 A 
ATOM     16  C   UNL     1      53.321  29.667 195.957  0.00  0.00    +0.000 A 
BRANCH  13  17
ATOM     17  O   UNL     1      56.150  26.760 195.600  0.00  0.00    +0.000 OA
ATOM     18  H   UNL     1      56.659  26.594 196.444  0.00  0.00    +0.000 HD
ENDBRANCH  13  17
BRANCH  15  19
ATOM     19  O   UNL     1      55.029  31.352 195.688  0.00  0.00    +0.000 OA
ATOM     20  H   UNL     1      54.356  32.073 195.524  0.00  0.00    +0.000 HD
ENDBRANCH  15  19
ENDBRANCH   2  11
TORSDOF 5
ENDMDL
MODEL 9
REMARK VINA RESULT:    -6.529     15.451     17.159
REMARK INTER + INTRA:          -8.463
REMARK INTER:                  -8.056
REMARK INTRA:                  -0.407
REMARK UNBOUND:                -0.407
REMARK  Name = 
REMARK  6 active torsions:
REMARK  status: ('A' for Active; 'I' for Inactive)
REMARK    1  A    between atoms: C_1  and  O_2
REMARK    2  A    between atoms: O_2  and  C_3
REMARK    3  A    between atoms: C_6  and  C_7
REMARK    4  A    between atoms: C_8  and  C_9
REMARK    5  A    between atoms: C_11  and  O_12
REMARK    6  A    between atoms: C_14  and  O_15
REMARK                            x       y       z     vdW  Elec       q    Type
REMARK                         _______ _______ _______ _____ _____    ______ ____
ROOT
ATOM      1  C   UNL     1      51.449  30.355 197.618  0.00  0.00    +0.000 C 
ATOM      2  C   UNL     1      51.572  29.459 196.602  0.00  0.00    +0.000 C 
ENDROOT
BRANCH   1   6
ATOM      3  C   UNL     1      54.769  31.757 199.911  0.00  0.00    +0.000 A 
ATOM      4  C   UNL     1      54.165  30.566 200.276  0.00  0.00    +0.000 A 
ATOM      5  C   UNL     1      53.228  30.084 199.331  0.00  0.00    +0.000 A 
ATOM      6  C   UNL     1      52.683  30.818 198.377  0.00  0.00    +0.000 A 
ATOM      7  C   UNL     1      53.286  32.015 198.111  0.00  0.00    +0.000 A 
ATOM      8  C   UNL     1      54.296  32.491 198.910  0.00  0.00    +0.000 A 
BRANCH   3  10
ATOM      9  C   UNL     1      57.167  32.302 199.960  0.00  0.00    +0.000 C 
ATOM     10  O   UNL     1      55.912  32.214 200.619  0.00  0.00    +0.000 OA
ENDBRANCH   3  10
ENDBRANCH   1   6
BRANCH   2  11
ATOM     11  C   UNL     1      52.942  28.919 196.226  0.00  0.00    +0.000 A 
ATOM     12  C   UNL     1      53.819  29.703 195.496  0.00  0.00    +0.000 A 
ATOM     13  C   UNL     1      54.928  28.994 194.978  0.00  0.00    +0.000 A 
ATOM     14  C   UNL     1      55.328  27.811 195.410  0.00  0.00    +0.000 A 
ATOM     15  C   UNL     1      54.442  27.114 196.183  0.00  0.00    +0.000 A 
ATOM     16  C   UNL     1      53.276  27.696 196.620  0.00  0.00    +0.000 A 
BRANCH  13  17
ATOM     17  O   UNL     1      55.662  29.594 193.921  0.00  0.00    +0.000 OA
ATOM     18  H   UNL     1      56.071  29.024 193.209  0.00  0.00    +0.000 HD
ENDBRANCH  13  17
BRANCH  15  19
ATOM     19  O   UNL     1      54.731  25.770 196.540  0.00  0.00    +0.000 OA
ATOM     20  H   UNL     1      54.196  25.316 197.252  0.00  0.00    +0.000 HD
ENDBRANCH  15  19
ENDBRANCH   2  11
TORSDOF 5
ENDMDL
