MODEL 1
REMARK VINA RESULT:    -6.543      0.000      0.000
REMARK INTER + INTRA:         -13.202
REMARK INTER:                 -10.307
REMARK INTRA:                  -2.895
REMARK UNBOUND:                -3.216
REMARK  Name = 
REMARK  10 active torsions:
REMARK  status: ('A' for Active; 'I' for Inactive)
REMARK    1  A    between atoms: C_2  and  C_3
REMARK    2  A    between atoms: C_2  and  C_14
REMARK    3  A    between atoms: C_3  and  C_4
REMARK    4  A    between atoms: C_4  and  C_5
REMARK    5  A    between atoms: C_5  and  C_6
REMARK    6  A    between atoms: C_6  and  C_7
REMARK    7  A    between atoms: C_10  and  O_11
REMARK    8  A    between atoms: C_14  and  C_15
REMARK    9  A    between atoms: C_15  and  C_16
REMARK   10  A    between atoms: C_19  and  O_20
REMARK                            x       y       z     vdW  Elec       q    Type
REMARK                         _______ _______ _______ _____ _____    ______ ____
ROOT
ATOM      1  O   UNL     1      45.147  19.491 194.525  0.00  0.00    +0.000 OA
ATOM      2  C   UNL     1      44.475  20.560 194.666  0.00  0.00    +0.000 C 
ENDROOT
BRANCH   2   3
ATOM      3  C   UNL     1      45.176  21.908 194.643  0.00  0.00    +0.000 C 
BRANCH   3   4
ATOM      4  C   UNL     1      45.328  22.376 193.205  0.00  0.00    +0.000 C 
BRANCH   4   5
ATOM      5  C   UNL     1      44.232  23.378 192.880  0.00  0.00    +0.000 C 
BRANCH   5   6
ATOM      6  C   UNL     1      43.650  23.929 194.172  0.00  0.00    +0.000 C 
BRANCH   6   7
ATOM      7  C   UNL     1      42.269  24.504 193.902  0.00  0.00    +0.000 A 
ATOM      8  C   UNL     1      41.415  24.571 194.980  0.00  0.00    +0.000 A 
ATOM      9  C   UNL     1      40.172  25.204 194.877  0.00  0.00    +0.000 A 
ATOM     10  C   UNL     1      39.836  25.783 193.636  0.00  0.00    +0.000 A 
ATOM     11  C   UNL     1      40.684  25.683 192.560  0.00  0.00    +0.000 A 
ATOM     12  C   UNL     1      41.904  25.051 192.697  0.00  0.00    +0.000 A 
BRANCH  10  13
ATOM     13  O   UNL     1      38.665  26.436 193.450  0.00  0.00    +0.000 OA
ATOM     14  H   UNL     1      38.654  27.314 192.973  0.00  0.00    +0.000 HD
ENDBRANCH  10  13
ENDBRANCH   6   7
ENDBRANCH   5   6
ENDBRANCH   4   5
ENDBRANCH   3   4
ENDBRANCH   2   3
BRANCH   2  15
ATOM     15  C   UNL     1      42.969  20.490 194.857  0.00  0.00    +0.000 C 
BRANCH  15  16
ATOM     16  C   UNL     1      42.347  19.710 193.710  0.00  0.00    +0.000 C 
BRANCH  16  17
ATOM     17  C   UNL     1      41.549  20.656 192.828  0.00  0.00    +0.000 A 
ATOM     18  C   UNL     1      41.977  20.926 191.547  0.00  0.00    +0.000 A 
ATOM     19  C   UNL     1      41.255  21.785 190.711  0.00  0.00    +0.000 A 
ATOM     20  C   UNL     1      40.066  22.346 191.222  0.00  0.00    +0.000 A 
ATOM     21  C   UNL     1      39.664  22.091 192.512  0.00  0.00    +0.000 A 
ATOM     22  C   UNL     1      40.402  21.239 193.310  0.00  0.00    +0.000 A 
BRANCH  20  23
ATOM     23  O   UNL     1      39.291  23.167 190.478  0.00  0.00    +0.000 OA
ATOM     24  H   UNL     1      39.558  23.393 189.541  0.00  0.00    +0.000 HD
ENDBRANCH  20  23
ENDBRANCH  16  17
ENDBRANCH  15  16
ENDBRANCH   2  15
TORSDOF 10
ENDMDL
MODEL 2
REMARK VINA RESULT:    -6.515     12.157     15.015
REMARK INTER + INTRA:         -13.159
REMARK INTER:                 -10.245
REMARK INTRA:                  -2.914
REMARK UNBOUND:                -3.216
REMARK  Name = 
REMARK  10 active torsions:
REMARK  status: ('A' for Active; 'I' for Inactive)
REMARK    1  A    between atoms: C_2  and  C_3
REMARK    2  A    between atoms: C_2  and  C_14
REMARK    3  A    between atoms: C_3  and  C_4
REMARK    4  A    between atoms: C_4  and  C_5
REMARK    5  A    between atoms: C_5  and  C_6
REMARK    6  A    between atoms: C_6  and  C_7
REMARK    7  A    between atoms: C_10  and  O_11
REMARK    8  A    between atoms: C_14  and  C_15
REMARK    9  A    between atoms: C_15  and  C_16
REMARK   10  A    between atoms: C_19  and  O_20
REMARK                            x       y       z     vdW  Elec       q    Type
REMARK                         _______ _______ _______ _____ _____    ______ ____
ROOT
ATOM      1  O   UNL     1      50.177  28.796 201.377  0.00  0.00    +0.000 OA
ATOM      2  C   UNL     1      50.883  28.496 200.364  0.00  0.00    +0.000 C 
ENDROOT
BRANCH   2   3
ATOM      3  C   UNL     1      50.211  28.142 199.047  0.00  0.00    +0.000 C 
BRANCH   3   4
ATOM      4  C   UNL     1      49.963  29.410 198.247  0.00  0.00    +0.000 C 
BRANCH   4   5
ATOM      5  C   UNL     1      51.032  29.551 197.176  0.00  0.00    +0.000 C 
BRANCH   5   6
ATOM      6  C   UNL     1      51.687  28.201 196.934  0.00  0.00    +0.000 C 
BRANCH   6   7
ATOM      7  C   UNL     1      53.003  28.399 196.199  0.00  0.00    +0.000 A 
ATOM      8  C   UNL     1      53.849  27.314 196.160  0.00  0.00    +0.000 A 
ATOM      9  C   UNL     1      55.023  27.341 195.399  0.00  0.00    +0.000 A 
ATOM     10  C   UNL     1      55.295  28.513 194.663  0.00  0.00    +0.000 A 
ATOM     11  C   UNL     1      54.458  29.600 194.734  0.00  0.00    +0.000 A 
ATOM     12  C   UNL     1      53.307  29.539 195.496  0.00  0.00    +0.000 A 
BRANCH  10  13
ATOM     13  O   UNL     1      56.394  28.622 193.881  0.00  0.00    +0.000 OA
ATOM     14  H   UNL     1      56.522  27.999 193.110  0.00  0.00    +0.000 HD
ENDBRANCH  10  13
ENDBRANCH   6   7
ENDBRANCH   5   6
ENDBRANCH   4   5
ENDBRANCH   3   4
ENDBRANCH   2   3
BRANCH   2  15
ATOM     15  C   UNL     1      52.399  28.491 200.467  0.00  0.00    +0.000 C 
BRANCH  15  16
ATOM     16  C   UNL     1      52.896  29.911 200.689  0.00  0.00    +0.000 C 
BRANCH  16  17
ATOM     17  C   UNL     1      53.937  30.253 199.637  0.00  0.00    +0.000 A 
ATOM     18  C   UNL     1      53.854  31.445 198.951  0.00  0.00    +0.000 A 
ATOM     19  C   UNL     1      54.805  31.789 197.984  0.00  0.00    +0.000 A 
ATOM     20  C   UNL     1      55.859  30.881 197.753  0.00  0.00    +0.000 A 
ATOM     21  C   UNL     1      55.915  29.682 198.423  0.00  0.00    +0.000 A 
ATOM     22  C   UNL     1      54.959  29.374 199.371  0.00  0.00    +0.000 A 
BRANCH  20  23
ATOM     23  O   UNL     1      56.836  31.142 196.856  0.00  0.00    +0.000 OA
ATOM     24  H   UNL     1      56.681  31.808 196.127  0.00  0.00    +0.000 HD
ENDBRANCH  20  23
ENDBRANCH  16  17
ENDBRANCH  15  16
ENDBRANCH   2  15
TORSDOF 10
ENDMDL
MODEL 3
REMARK VINA RESULT:    -6.479     11.974     14.450
REMARK INTER + INTRA:         -13.104
REMARK INTER:                 -10.130
REMARK INTRA:                  -2.975
REMARK UNBOUND:                -3.216
REMARK  Name = 
REMARK  10 active torsions:
REMARK  status: ('A' for Active; 'I' for Inactive)
REMARK    1  A    between atoms: C_2  and  C_3
REMARK    2  A    between atoms: C_2  and  C_14
REMARK    3  A    between atoms: C_3  and  C_4
REMARK    4  A    between atoms: C_4  and  C_5
REMARK    5  A    between atoms: C_5  and  C_6
REMARK    6  A    between atoms: C_6  and  C_7
REMARK    7  A    between atoms: C_10  and  O_11
REMARK    8  A    between atoms: C_14  and  C_15
REMARK    9  A    between atoms: C_15  and  C_16
REMARK   10  A    between atoms: C_19  and  O_20
REMARK                            x       y       z     vdW  Elec       q    Type
REMARK                         _______ _______ _______ _____ _____    ______ ____
ROOT
ATOM      1  O   UNL     1      49.001  27.646 197.878  0.00  0.00    +0.000 OA
ATOM      2  C   UNL     1      49.916  28.461 198.218  0.00  0.00    +0.000 C 
ENDROOT
BRANCH   2   3
ATOM      3  C   UNL     1      49.895  29.094 199.599  0.00  0.00    +0.000 C 
BRANCH   3   4
ATOM      4  C   UNL     1      50.880  28.372 200.503  0.00  0.00    +0.000 C 
BRANCH   4   5
ATOM      5  C   UNL     1      52.004  29.320 200.887  0.00  0.00    +0.000 C 
BRANCH   5   6
ATOM      6  C   UNL     1      53.312  28.820 200.296  0.00  0.00    +0.000 C 
BRANCH   6   7
ATOM      7  C   UNL     1      53.930  29.911 199.436  0.00  0.00    +0.000 A 
ATOM      8  C   UNL     1      55.174  29.643 198.911  0.00  0.00    +0.000 A 
ATOM      9  C   UNL     1      55.776  30.517 197.999  0.00  0.00    +0.000 A 
ATOM     10  C   UNL     1      55.054  31.669 197.626  0.00  0.00    +0.000 A 
ATOM     11  C   UNL     1      53.826  31.941 198.180  0.00  0.00    +0.000 A 
ATOM     12  C   UNL     1      53.261  31.056 199.078  0.00  0.00    +0.000 A 
BRANCH  10  13
ATOM     13  O   UNL     1      55.546  32.559 196.733  0.00  0.00    +0.000 OA
ATOM     14  H   UNL     1      56.488  32.882 196.818  0.00  0.00    +0.000 HD
ENDBRANCH  10  13
ENDBRANCH   6   7
ENDBRANCH   5   6
ENDBRANCH   4   5
ENDBRANCH   3   4
ENDBRANCH   2   3
BRANCH   2  15
ATOM     15  C   UNL     1      51.030  28.802 197.243  0.00  0.00    +0.000 C 
BRANCH  15  16
ATOM     16  C   UNL     1      51.991  27.628 197.140  0.00  0.00    +0.000 C 
BRANCH  16  17
ATOM     17  C   UNL     1      53.165  28.010 196.254  0.00  0.00    +0.000 A 
ATOM     18  C   UNL     1      54.224  27.142 196.105  0.00  0.00    +0.000 A 
ATOM     19  C   UNL     1      55.312  27.465 195.287  0.00  0.00    +0.000 A 
ATOM     20  C   UNL     1      55.275  28.701 194.609  0.00  0.00    +0.000 A 
ATOM     21  C   UNL     1      54.226  29.571 194.789  0.00  0.00    +0.000 A 
ATOM     22  C   UNL     1      53.169  29.221 195.604  0.00  0.00    +0.000 A 
BRANCH  20  23
ATOM     23  O   UNL     1      56.271  29.085 193.779  0.00  0.00    +0.000 OA
ATOM     24  H   UNL     1      56.364  30.047 193.522  0.00  0.00    +0.000 HD
ENDBRANCH  20  23
ENDBRANCH  16  17
ENDBRANCH  15  16
ENDBRANCH   2  15
TORSDOF 10
ENDMDL
MODEL 4
REMARK VINA RESULT:    -6.477      1.036      4.099
REMARK INTER + INTRA:         -13.101
REMARK INTER:                 -10.295
REMARK INTRA:                  -2.806
REMARK UNBOUND:                -3.216
REMARK  Name = 
REMARK  10 active torsions:
REMARK  status: ('A' for Active; 'I' for Inactive)
REMARK    1  A    between atoms: C_2  and  C_3
REMARK    2  A    between atoms: C_2  and  C_14
REMARK    3  A    between atoms: C_3  and  C_4
REMARK    4  A    between atoms: C_4  and  C_5
REMARK    5  A    between atoms: C_5  and  C_6
REMARK    6  A    between atoms: C_6  and  C_7
REMARK    7  A    between atoms: C_10  and  O_11
REMARK    8  A    between atoms: C_14  and  C_15
REMARK    9  A    between atoms: C_15  and  C_16
REMARK   10  A    between atoms: C_19  and  O_20
REMARK                            x       y       z     vdW  Elec       q    Type
REMARK                         _______ _______ _______ _____ _____    ______ ____
ROOT
ATOM      1  O   UNL     1      46.753  22.715 193.920  0.00  0.00    +0.000 OA
ATOM      2  C   UNL     1      45.610  22.343 194.334  0.00  0.00    +0.000 C 
ENDROOT
BRANCH   2   3
ATOM      3  C   UNL     1      45.335  20.869 194.582  0.00  0.00    +0.000 C 
BRANCH   3   4
ATOM      4  C   UNL     1      43.937  20.704 195.155  0.00  0.00    +0.000 C 
BRANCH   4   5
ATOM      5  C   UNL     1      43.132  19.771 194.264  0.00  0.00    +0.000 C 
BRANCH   5   6
ATOM      6  C   UNL     1      41.654  20.102 194.390  0.00  0.00    +0.000 C 
BRANCH   6   7
ATOM      7  C   UNL     1      41.175  20.779 193.115  0.00  0.00    +0.000 A 
ATOM      8  C   UNL     1      40.006  21.499 193.209  0.00  0.00    +0.000 A 
ATOM      9  C   UNL     1      39.545  22.270 192.136  0.00  0.00    +0.000 A 
ATOM     10  C   UNL     1      40.332  22.295 190.966  0.00  0.00    +0.000 A 
ATOM     11  C   UNL     1      41.482  21.548 190.875  0.00  0.00    +0.000 A 
ATOM     12  C   UNL     1      41.907  20.798 191.953  0.00  0.00    +0.000 A 
BRANCH  10  13
ATOM     13  O   UNL     1      39.979  23.031 189.887  0.00  0.00    +0.000 OA
ATOM     14  H   UNL     1      39.375  22.640 189.193  0.00  0.00    +0.000 HD
ENDBRANCH  10  13
ENDBRANCH   6   7
ENDBRANCH   5   6
ENDBRANCH   4   5
ENDBRANCH   3   4
ENDBRANCH   2   3
BRANCH   2  15
ATOM     15  C   UNL     1      44.519  23.371 194.581  0.00  0.00    +0.000 C 
BRANCH  15  16
ATOM     16  C   UNL     1      43.699  23.554 193.314  0.00  0.00    +0.000 C 
BRANCH  16  17
ATOM     17  C   UNL     1      42.431  24.326 193.638  0.00  0.00    +0.000 A 
ATOM     18  C   UNL     1      41.890  24.257 194.902  0.00  0.00    +0.000 A 
ATOM     19  C   UNL     1      40.728  24.966 195.230  0.00  0.00    +0.000 A 
ATOM     20  C   UNL     1      40.146  25.765 194.225  0.00  0.00    +0.000 A 
ATOM     21  C   UNL     1      40.680  25.804 192.958  0.00  0.00    +0.000 A 
ATOM     22  C   UNL     1      41.826  25.091 192.669  0.00  0.00    +0.000 A 
BRANCH  20  23
ATOM     23  O   UNL     1      39.038  26.504 194.458  0.00  0.00    +0.000 OA
ATOM     24  H   UNL     1      38.331  26.580 193.755  0.00  0.00    +0.000 HD
ENDBRANCH  20  23
ENDBRANCH  16  17
ENDBRANCH  15  16
ENDBRANCH   2  15
TORSDOF 10
ENDMDL
MODEL 5
REMARK VINA RESULT:    -6.051      1.766      5.458
REMARK INTER + INTRA:         -12.452
REMARK INTER:                 -10.750
REMARK INTRA:                  -1.702
REMARK UNBOUND:                -3.216
REMARK  Name = 
REMARK  10 active torsions:
REMARK  status: ('A' for Active; 'I' for Inactive)
REMARK    1  A    between atoms: C_2  and  C_3
REMARK    2  A    between atoms: C_2  and  C_14
REMARK    3  A    between atoms: C_3  and  C_4
REMARK    4  A    between atoms: C_4  and  C_5
REMARK    5  A    between atoms: C_5  and  C_6
REMARK    6  A    between atoms: C_6  and  C_7
REMARK    7  A    between atoms: C_10  and  O_11
REMARK    8  A    between atoms: C_14  and  C_15
REMARK    9  A    between atoms: C_15  and  C_16
REMARK   10  A    between atoms: C_19  and  O_20
REMARK                            x       y       z     vdW  Elec       q    Type
REMARK                         _______ _______ _______ _____ _____    ______ ____
ROOT
ATOM      1  O   UNL     1      40.920  19.746 190.920  0.00  0.00    +0.000 OA
ATOM      2  C   UNL     1      41.321  20.685 191.677  0.00  0.00    +0.000 C 
ENDROOT
BRANCH   2   3
ATOM      3  C   UNL     1      41.427  20.460 193.176  0.00  0.00    +0.000 C 
BRANCH   3   4
ATOM      4  C   UNL     1      42.037  19.093 193.442  0.00  0.00    +0.000 C 
BRANCH   4   5
ATOM      5  C   UNL     1      43.302  19.255 194.270  0.00  0.00    +0.000 C 
BRANCH   5   6
ATOM      6  C   UNL     1      43.434  20.702 194.714  0.00  0.00    +0.000 C 
BRANCH   6   7
ATOM      7  C   UNL     1      44.867  21.168 194.507  0.00  0.00    +0.000 A 
ATOM      8  C   UNL     1      45.100  22.515 194.671  0.00  0.00    +0.000 A 
ATOM      9  C   UNL     1      46.400  23.031 194.637  0.00  0.00    +0.000 A 
ATOM     10  C   UNL     1      47.459  22.120 194.446  0.00  0.00    +0.000 A 
ATOM     11  C   UNL     1      47.210  20.782 194.254  0.00  0.00    +0.000 A 
ATOM     12  C   UNL     1      45.915  20.306 194.293  0.00  0.00    +0.000 A 
BRANCH  10  13
ATOM     13  O   UNL     1      48.749  22.525 194.422  0.00  0.00    +0.000 OA
ATOM     14  H   UNL     1      49.401  22.080 193.807  0.00  0.00    +0.000 HD
ENDBRANCH  10  13
ENDBRANCH   6   7
ENDBRANCH   5   6
ENDBRANCH   4   5
ENDBRANCH   3   4
ENDBRANCH   2   3
BRANCH   2  15
ATOM     15  C   UNL     1      41.694  22.033 191.084  0.00  0.00    +0.000 C 
BRANCH  15  16
ATOM     16  C   UNL     1      42.552  22.803 192.074  0.00  0.00    +0.000 C 
BRANCH  16  17
ATOM     17  C   UNL     1      41.707  23.865 192.758  0.00  0.00    +0.000 A 
ATOM     18  C   UNL     1      40.532  24.288 192.176  0.00  0.00    +0.000 A 
ATOM     19  C   UNL     1      39.731  25.257 192.790  0.00  0.00    +0.000 A 
ATOM     20  C   UNL     1      40.160  25.768 194.032  0.00  0.00    +0.000 A 
ATOM     21  C   UNL     1      41.349  25.360 194.589  0.00  0.00    +0.000 A 
ATOM     22  C   UNL     1      42.116  24.402 193.956  0.00  0.00    +0.000 A 
BRANCH  20  23
ATOM     23  O   UNL     1      39.438  26.689 194.709  0.00  0.00    +0.000 OA
ATOM     24  H   UNL     1      39.712  27.650 194.694  0.00  0.00    +0.000 HD
ENDBRANCH  20  23
ENDBRANCH  16  17
ENDBRANCH  15  16
ENDBRANCH   2  15
TORSDOF 10
ENDMDL
MODEL 6
REMARK VINA RESULT:    -6.012     11.953     14.320
REMARK INTER + INTRA:         -12.392
REMARK INTER:                 -10.324
REMARK INTRA:                  -2.067
REMARK UNBOUND:                -3.216
REMARK  Name = 
REMARK  10 active torsions:
REMARK  status: ('A' for Active; 'I' for Inactive)
REMARK    1  A    between atoms: C_2  and  C_3
REMARK    2  A    between atoms: C_2  and  C_14
REMARK    3  A    between atoms: C_3  and  C_4
REMARK    4  A    between atoms: C_4  and  C_5
REMARK    5  A    between atoms: C_5  and  C_6
REMARK    6  A    between atoms: C_6  and  C_7
REMARK    7  A    between atoms: C_10  and  O_11
REMARK    8  A    between atoms: C_14  and  C_15
REMARK    9  A    between atoms: C_15  and  C_16
REMARK   10  A    between atoms: C_19  and  O_20
REMARK                            x       y       z     vdW  Elec       q    Type
REMARK                         _______ _______ _______ _____ _____    ______ ____
ROOT
ATOM      1  O   UNL     1      56.255  32.049 200.165  0.00  0.00    +0.000 OA
ATOM      2  C   UNL     1      55.170  31.581 199.697  0.00  0.00    +0.000 C 
ENDROOT
BRANCH   2   3
ATOM      3  C   UNL     1      54.419  30.501 200.457  0.00  0.00    +0.000 C 
BRANCH   3   4
ATOM      4  C   UNL     1      54.717  29.145 199.839  0.00  0.00    +0.000 C 
BRANCH   4   5
ATOM      5  C   UNL     1      53.451  28.587 199.207  0.00  0.00    +0.000 C 
BRANCH   5   6
ATOM      6  C   UNL     1      52.246  29.350 199.729  0.00  0.00    +0.000 C 
BRANCH   6   7
ATOM      7  C   UNL     1      50.971  28.671 199.257  0.00  0.00    +0.000 A 
ATOM      8  C   UNL     1      49.892  28.736 200.110  0.00  0.00    +0.000 A 
ATOM      9  C   UNL     1      48.634  28.264 199.721  0.00  0.00    +0.000 A 
ATOM     10  C   UNL     1      48.510  27.736 198.419  0.00  0.00    +0.000 A 
ATOM     11  C   UNL     1      49.601  27.649 197.588  0.00  0.00    +0.000 A 
ATOM     12  C   UNL     1      50.829  28.125 198.005  0.00  0.00    +0.000 A 
BRANCH  10  13
ATOM     13  O   UNL     1      47.328  27.277 197.947  0.00  0.00    +0.000 OA
ATOM     14  H   UNL     1      46.818  27.811 197.274  0.00  0.00    +0.000 HD
ENDBRANCH  10  13
ENDBRANCH   6   7
ENDBRANCH   5   6
ENDBRANCH   4   5
ENDBRANCH   3   4
ENDBRANCH   2   3
BRANCH   2  15
ATOM     15  C   UNL     1      54.623  32.102 198.379  0.00  0.00    +0.000 C 
BRANCH  15  16
ATOM     16  C   UNL     1      55.610  31.795 197.264  0.00  0.00    +0.000 C 
BRANCH  16  17
ATOM     17  C   UNL     1      55.126  30.588 196.477  0.00  0.00    +0.000 A 
ATOM     18  C   UNL     1      53.801  30.491 196.116  0.00  0.00    +0.000 A 
ATOM     19  C   UNL     1      53.332  29.395 195.382  0.00  0.00    +0.000 A 
ATOM     20  C   UNL     1      54.267  28.407 195.014  0.00  0.00    +0.000 A 
ATOM     21  C   UNL     1      55.582  28.501 195.405  0.00  0.00    +0.000 A 
ATOM     22  C   UNL     1      56.011  29.596 196.129  0.00  0.00    +0.000 A 
BRANCH  20  23
ATOM     23  O   UNL     1      53.909  27.327 194.284  0.00  0.00    +0.000 OA
ATOM     24  H   UNL     1      54.009  26.409 194.668  0.00  0.00    +0.000 HD
ENDBRANCH  20  23
ENDBRANCH  16  17
ENDBRANCH  15  16
ENDBRANCH   2  15
TORSDOF 10
ENDMDL
MODEL 7
REMARK VINA RESULT:    -5.896      1.988      5.123
REMARK INTER + INTRA:         -12.214
REMARK INTER:                  -8.998
REMARK INTRA:                  -3.216
REMARK UNBOUND:                -3.216
REMARK  Name = 
REMARK  10 active torsions:
REMARK  status: ('A' for Active; 'I' for Inactive)
REMARK    1  A    between atoms: C_2  and  C_3
REMARK    2  A    between atoms: C_2  and  C_14
REMARK    3  A    between atoms: C_3  and  C_4
REMARK    4  A    between atoms: C_4  and  C_5
REMARK    5  A    between atoms: C_5  and  C_6
REMARK    6  A    between atoms: C_6  and  C_7
REMARK    7  A    between atoms: C_10  and  O_11
REMARK    8  A    between atoms: C_14  and  C_15
REMARK    9  A    between atoms: C_15  and  C_16
REMARK   10  A    between atoms: C_19  and  O_20
REMARK                            x       y       z     vdW  Elec       q    Type
REMARK                         _______ _______ _______ _____ _____    ______ ____
ROOT
ATOM      1  O   UNL     1      37.567  19.643 190.614  0.00  0.00    +0.000 OA
ATOM      2  C   UNL     1      38.420  20.297 191.292  0.00  0.00    +0.000 C 
ENDROOT
BRANCH   2   3
ATOM      3  C   UNL     1      39.415  19.563 192.175  0.00  0.00    +0.000 C 
BRANCH   3   4
ATOM      4  C   UNL     1      39.108  19.852 193.635  0.00  0.00    +0.000 C 
BRANCH   4   5
ATOM      5  C   UNL     1      40.405  20.120 194.382  0.00  0.00    +0.000 C 
BRANCH   5   6
ATOM      6  C   UNL     1      41.570  20.070 193.407  0.00  0.00    +0.000 C 
BRANCH   6   7
ATOM      7  C   UNL     1      42.457  21.288 193.614  0.00  0.00    +0.000 A 
ATOM      8  C   UNL     1      42.210  22.038 194.741  0.00  0.00    +0.000 A 
ATOM      9  C   UNL     1      43.050  23.098 195.100  0.00  0.00    +0.000 A 
ATOM     10  C   UNL     1      44.164  23.356 194.274  0.00  0.00    +0.000 A 
ATOM     11  C   UNL     1      44.381  22.619 193.135  0.00  0.00    +0.000 A 
ATOM     12  C   UNL     1      43.532  21.579 192.811  0.00  0.00    +0.000 A 
BRANCH  10  13
ATOM     13  O   UNL     1      45.042  24.346 194.555  0.00  0.00    +0.000 OA
ATOM     14  H   UNL     1      46.024  24.156 194.553  0.00  0.00    +0.000 HD
ENDBRANCH  10  13
ENDBRANCH   6   7
ENDBRANCH   5   6
ENDBRANCH   4   5
ENDBRANCH   3   4
ENDBRANCH   2   3
BRANCH   2  15
ATOM     15  C   UNL     1      38.444  21.815 191.221  0.00  0.00    +0.000 C 
BRANCH  15  16
ATOM     16  C   UNL     1      39.880  22.293 191.077  0.00  0.00    +0.000 C 
BRANCH  16  17
ATOM     17  C   UNL     1      40.122  23.462 192.017  0.00  0.00    +0.000 A 
ATOM     18  C   UNL     1      39.250  23.699 193.056  0.00  0.00    +0.000 A 
ATOM     19  C   UNL     1      39.455  24.762 193.942  0.00  0.00    +0.000 A 
ATOM     20  C   UNL     1      40.594  25.568 193.742  0.00  0.00    +0.000 A 
ATOM     21  C   UNL     1      41.442  25.339 192.684  0.00  0.00    +0.000 A 
ATOM     22  C   UNL     1      41.209  24.281 191.828  0.00  0.00    +0.000 A 
BRANCH  20  23
ATOM     23  O   UNL     1      40.886  26.602 194.563  0.00  0.00    +0.000 OA
ATOM     24  H   UNL     1      41.352  27.410 194.203  0.00  0.00    +0.000 HD
ENDBRANCH  20  23
ENDBRANCH  16  17
ENDBRANCH  15  16
ENDBRANCH   2  15
TORSDOF 10
ENDMDL
MODEL 8
REMARK VINA RESULT:    -5.867      1.831      4.208
REMARK INTER + INTRA:         -12.171
REMARK INTER:                  -9.195
REMARK INTRA:                  -2.976
REMARK UNBOUND:                -3.216
REMARK  Name = 
REMARK  10 active torsions:
REMARK  status: ('A' for Active; 'I' for Inactive)
REMARK    1  A    between atoms: C_2  and  C_3
REMARK    2  A    between atoms: C_2  and  C_14
REMARK    3  A    between atoms: C_3  and  C_4
REMARK    4  A    between atoms: C_4  and  C_5
REMARK    5  A    between atoms: C_5  and  C_6
REMARK    6  A    between atoms: C_6  and  C_7
REMARK    7  A    between atoms: C_10  and  O_11
REMARK    8  A    between atoms: C_14  and  C_15
REMARK    9  A    between atoms: C_15  and  C_16
REMARK   10  A    between atoms: C_19  and  O_20
REMARK                            x       y       z     vdW  Elec       q    Type
REMARK                         _______ _______ _______ _____ _____    ______ ____
ROOT
ATOM      1  O   UNL     1      46.857  21.421 194.387  0.00  0.00    +0.000 OA
ATOM      2  C   UNL     1      45.619  21.562 194.136  0.00  0.00    +0.000 C 
ENDROOT
BRANCH   2   3
ATOM      3  C   UNL     1      44.587  20.809 194.960  0.00  0.00    +0.000 C 
BRANCH   3   4
ATOM      4  C   UNL     1      44.620  19.335 194.592  0.00  0.00    +0.000 C 
BRANCH   4   5
ATOM      5  C   UNL     1      43.221  18.874 194.218  0.00  0.00    +0.000 C 
BRANCH   5   6
ATOM      6  C   UNL     1      42.206  19.905 194.686  0.00  0.00    +0.000 C 
BRANCH   6   7
ATOM      7  C   UNL     1      41.039  19.947 193.713  0.00  0.00    +0.000 A 
ATOM      8  C   UNL     1      41.083  19.051 192.669  0.00  0.00    +0.000 A 
ATOM      9  C   UNL     1      40.001  18.910 191.793  0.00  0.00    +0.000 A 
ATOM     10  C   UNL     1      38.861  19.706 192.031  0.00  0.00    +0.000 A 
ATOM     11  C   UNL     1      38.842  20.618 193.059  0.00  0.00    +0.000 A 
ATOM     12  C   UNL     1      39.928  20.730 193.905  0.00  0.00    +0.000 A 
BRANCH  10  13
ATOM     13  O   UNL     1      37.759  19.621 191.251  0.00  0.00    +0.000 OA
ATOM     14  H   UNL     1      37.392  20.443 190.816  0.00  0.00    +0.000 HD
ENDBRANCH  10  13
ENDBRANCH   6   7
ENDBRANCH   5   6
ENDBRANCH   4   5
ENDBRANCH   3   4
ENDBRANCH   2   3
BRANCH   2  15
ATOM     15  C   UNL     1      45.170  22.481 193.013  0.00  0.00    +0.000 C 
BRANCH  15  16
ATOM     16  C   UNL     1      44.035  23.365 193.504  0.00  0.00    +0.000 C 
BRANCH  16  17
ATOM     17  C   UNL     1      42.826  23.187 192.601  0.00  0.00    +0.000 A 
ATOM     18  C   UNL     1      41.719  23.988 192.770  0.00  0.00    +0.000 A 
ATOM     19  C   UNL     1      40.597  23.851 191.945  0.00  0.00    +0.000 A 
ATOM     20  C   UNL     1      40.651  22.878 190.926  0.00  0.00    +0.000 A 
ATOM     21  C   UNL     1      41.750  22.065 190.786  0.00  0.00    +0.000 A 
ATOM     22  C   UNL     1      42.840  22.227 191.618  0.00  0.00    +0.000 A 
BRANCH  20  23
ATOM     23  O   UNL     1      39.624  22.692 190.066  0.00  0.00    +0.000 OA
ATOM     24  H   UNL     1      39.238  23.471 189.572  0.00  0.00    +0.000 HD
ENDBRANCH  20  23
ENDBRANCH  16  17
ENDBRANCH  15  16
ENDBRANCH   2  15
TORSDOF 10
ENDMDL
MODEL 9
REMARK VINA RESULT:    -5.775      1.841      4.556
REMARK INTER + INTRA:         -12.030
REMARK INTER:                 -10.093
REMARK INTRA:                  -1.937
REMARK UNBOUND:                -3.216
REMARK  Name = 
REMARK  10 active torsions:
REMARK  status: ('A' for Active; 'I' for Inactive)
REMARK    1  A    between atoms: C_2  and  C_3
REMARK    2  A    between atoms: C_2  and  C_14
REMARK    3  A    between atoms: C_3  and  C_4
REMARK    4  A    between atoms: C_4  and  C_5
REMARK    5  A    between atoms: C_5  and  C_6
REMARK    6  A    between atoms: C_6  and  C_7
REMARK    7  A    between atoms: C_10  and  O_11
REMARK    8  A    between atoms: C_14  and  C_15
REMARK    9  A    between atoms: C_15  and  C_16
REMARK   10  A    between atoms: C_19  and  O_20
REMARK                            x       y       z     vdW  Elec       q    Type
REMARK                         _______ _______ _______ _____ _____    ______ ____
ROOT
ATOM      1  O   UNL     1      39.595  20.555 193.792  0.00  0.00    +0.000 OA
ATOM      2  C   UNL     1      40.835  20.349 193.604  0.00  0.00    +0.000 C 
ENDROOT
BRANCH   2   3
ATOM      3  C   UNL     1      41.296  19.508 192.425  0.00  0.00    +0.000 C 
BRANCH   3   4
ATOM      4  C   UNL     1      40.738  20.092 191.137  0.00  0.00    +0.000 C 
BRANCH   4   5
ATOM      5  C   UNL     1      41.343  21.467 190.901  0.00  0.00    +0.000 C 
BRANCH   5   6
ATOM      6  C   UNL     1      40.232  22.502 190.829  0.00  0.00    +0.000 C 
BRANCH   6   7
ATOM      7  C   UNL     1      40.435  23.540 191.921  0.00  0.00    +0.000 A 
ATOM      8  C   UNL     1      41.734  23.926 192.162  0.00  0.00    +0.000 A 
ATOM      9  C   UNL     1      42.024  24.969 193.049  0.00  0.00    +0.000 A 
ATOM     10  C   UNL     1      40.937  25.619 193.669  0.00  0.00    +0.000 A 
ATOM     11  C   UNL     1      39.646  25.204 193.442  0.00  0.00    +0.000 A 
ATOM     12  C   UNL     1      39.396  24.171 192.561  0.00  0.00    +0.000 A 
BRANCH  10  13
ATOM     13  O   UNL     1      41.119  26.653 194.522  0.00  0.00    +0.000 OA
ATOM     14  H   UNL     1      40.387  26.918 195.149  0.00  0.00    +0.000 HD
ENDBRANCH  10  13
ENDBRANCH   6   7
ENDBRANCH   5   6
ENDBRANCH   4   5
ENDBRANCH   3   4
ENDBRANCH   2   3
BRANCH   2  15
ATOM     15  C   UNL     1      41.858  20.943 194.559  0.00  0.00    +0.000 C 
BRANCH  15  16
ATOM     16  C   UNL     1      43.122  20.099 194.536  0.00  0.00    +0.000 C 
BRANCH  16  17
ATOM     17  C   UNL     1      44.339  21.010 194.529  0.00  0.00    +0.000 A 
ATOM     18  C   UNL     1      45.604  20.466 194.520  0.00  0.00    +0.000 A 
ATOM     19  C   UNL     1      46.740  21.283 194.504  0.00  0.00    +0.000 A 
ATOM     20  C   UNL     1      46.541  22.678 194.479  0.00  0.00    +0.000 A 
ATOM     21  C   UNL     1      45.274  23.210 194.517  0.00  0.00    +0.000 A 
ATOM     22  C   UNL     1      44.174  22.375 194.533  0.00  0.00    +0.000 A 
BRANCH  20  23
ATOM     23  O   UNL     1      47.579  23.543 194.437  0.00  0.00    +0.000 OA
ATOM     24  H   UNL     1      48.267  23.465 193.714  0.00  0.00    +0.000 HD
ENDBRANCH  20  23
ENDBRANCH  16  17
ENDBRANCH  15  16
ENDBRANCH   2  15
TORSDOF 10
ENDMDL
