MODEL 1
REMARK VINA RESULT:    -7.027      0.000      0.000
REMARK INTER + INTRA:          -9.348
REMARK INTER:                  -8.916
REMARK INTRA:                  -0.432
REMARK UNBOUND:                -0.472
REMARK  Name = 
REMARK  7 active torsions:
REMARK  status: ('A' for Active; 'I' for Inactive)
REMARK    1  A    between atoms: C_1  and  O_2
REMARK    2  A    between atoms: O_2  and  C_3
REMARK    3  A    between atoms: C_5  and  C_6
REMARK    4  A    between atoms: C_7  and  C_8
REMARK    5  A    between atoms: C_11  and  O_12
REMARK    6  A    between atoms: C_16  and  O_17
REMARK    7  A    between atoms: O_17  and  C_18
REMARK                            x       y       z     vdW  Elec       q    Type
REMARK                         _______ _______ _______ _____ _____    ______ ____
ROOT
ATOM      1  C   UNL     1      39.729  24.054 193.451  0.00  0.00    +0.000 A 
ATOM      2  C   UNL     1      41.031  23.756 193.820  0.00  0.00    +0.000 A 
ATOM      3  C   UNL     1      41.558  22.606 193.186  0.00  0.00    +0.000 A 
ATOM      4  C   UNL     1      40.829  21.679 192.590  0.00  0.00    +0.000 A 
ATOM      5  C   UNL     1      39.531  22.010 192.315  0.00  0.00    +0.000 A 
ATOM      6  C   UNL     1      38.984  23.177 192.789  0.00  0.00    +0.000 A 
ENDROOT
BRANCH   1   8
ATOM      7  C   UNL     1      39.467  25.683 195.275  0.00  0.00    +0.000 C 
ATOM      8  O   UNL     1      39.199  25.277 193.941  0.00  0.00    +0.000 OA
ENDBRANCH   1   8
BRANCH   3   9
ATOM      9  C   UNL     1      43.066  22.425 193.190  0.00  0.00    +0.000 C 
ATOM     10  C   UNL     1      43.719  22.178 194.358  0.00  0.00    +0.000 C 
BRANCH  10  11
ATOM     11  C   UNL     1      45.228  21.997 194.361  0.00  0.00    +0.000 A 
ATOM     12  C   UNL     1      46.088  23.049 194.631  0.00  0.00    +0.000 A 
ATOM     13  C   UNL     1      47.447  22.763 194.358  0.00  0.00    +0.000 A 
ATOM     14  C   UNL     1      47.942  21.548 194.213  0.00  0.00    +0.000 A 
ATOM     15  C   UNL     1      47.036  20.542 194.017  0.00  0.00    +0.000 A 
ATOM     16  C   UNL     1      45.687  20.771 194.139  0.00  0.00    +0.000 A 
BRANCH  14  17
ATOM     17  O   UNL     1      49.339  21.299 194.257  0.00  0.00    +0.000 OA
ATOM     18  H   UNL     1      49.872  21.583 195.054  0.00  0.00    +0.000 HD
ENDBRANCH  14  17
ENDBRANCH  10  11
ENDBRANCH   3   9
BRANCH   5  19
ATOM     19  O   UNL     1      38.737  21.135 191.528  0.00  0.00    +0.000 OA
ATOM     20  C   UNL     1      38.221  19.940 192.095  0.00  0.00    +0.000 C 
ENDBRANCH   5  19
TORSDOF 5
ENDMDL
MODEL 2
REMARK VINA RESULT:    -6.987      9.889     14.376
REMARK INTER + INTRA:          -9.297
REMARK INTER:                  -8.851
REMARK INTRA:                  -0.447
REMARK UNBOUND:                -0.472
REMARK  Name = 
REMARK  7 active torsions:
REMARK  status: ('A' for Active; 'I' for Inactive)
REMARK    1  A    between atoms: C_1  and  O_2
REMARK    2  A    between atoms: O_2  and  C_3
REMARK    3  A    between atoms: C_5  and  C_6
REMARK    4  A    between atoms: C_7  and  C_8
REMARK    5  A    between atoms: C_11  and  O_12
REMARK    6  A    between atoms: C_16  and  O_17
REMARK    7  A    between atoms: O_17  and  C_18
REMARK                            x       y       z     vdW  Elec       q    Type
REMARK                         _______ _______ _______ _____ _____    ______ ____
ROOT
ATOM      1  C   UNL     1      55.647  29.962 197.979  0.00  0.00    +0.000 A 
ATOM      2  C   UNL     1      54.337  30.293 198.290  0.00  0.00    +0.000 A 
ATOM      3  C   UNL     1      53.396  29.887 197.314  0.00  0.00    +0.000 A 
ATOM      4  C   UNL     1      53.700  29.559 196.071  0.00  0.00    +0.000 A 
ATOM      5  C   UNL     1      55.020  29.311 195.813  0.00  0.00    +0.000 A 
ATOM      6  C   UNL     1      55.984  29.559 196.760  0.00  0.00    +0.000 A 
ENDROOT
BRANCH   1   8
ATOM      7  C   UNL     1      56.701  31.496 199.586  0.00  0.00    +0.000 C 
ATOM      8  O   UNL     1      56.616  30.211 198.986  0.00  0.00    +0.000 OA
ENDBRANCH   1   8
BRANCH   3   9
ATOM      9  C   UNL     1      51.935  29.824 197.725  0.00  0.00    +0.000 C 
ATOM     10  C   UNL     1      51.507  28.847 198.570  0.00  0.00    +0.000 C 
BRANCH  10  11
ATOM     11  C   UNL     1      50.045  28.784 198.980  0.00  0.00    +0.000 A 
ATOM     12  C   UNL     1      49.609  29.260 200.206  0.00  0.00    +0.000 A 
ATOM     13  C   UNL     1      48.276  28.906 200.517  0.00  0.00    +0.000 A 
ATOM     14  C   UNL     1      47.385  28.491 199.635  0.00  0.00    +0.000 A 
ATOM     15  C   UNL     1      47.872  28.098 198.419  0.00  0.00    +0.000 A 
ATOM     16  C   UNL     1      49.192  28.291 198.090  0.00  0.00    +0.000 A 
BRANCH  14  17
ATOM     17  O   UNL     1      45.997  28.454 199.933  0.00  0.00    +0.000 OA
ATOM     18  H   UNL     1      45.377  27.920 199.359  0.00  0.00    +0.000 HD
ENDBRANCH  14  17
ENDBRANCH  10  11
ENDBRANCH   3   9
BRANCH   5  19
ATOM     19  O   UNL     1      55.400  28.789 194.548  0.00  0.00    +0.000 OA
ATOM     20  C   UNL     1      55.770  27.424 194.424  0.00  0.00    +0.000 C 
ENDBRANCH   5  19
TORSDOF 5
ENDMDL
MODEL 3
REMARK VINA RESULT:    -6.966      9.977     14.833
REMARK INTER + INTRA:          -9.270
REMARK INTER:                  -8.838
REMARK INTRA:                  -0.433
REMARK UNBOUND:                -0.472
REMARK  Name = 
REMARK  7 active torsions:
REMARK  status: ('A' for Active; 'I' for Inactive)
REMARK    1  A    between atoms: C_1  and  O_2
REMARK    2  A    between atoms: O_2  and  C_3
REMARK    3  A    between atoms: C_5  and  C_6
REMARK    4  A    between atoms: C_7  and  C_8
REMARK    5  A    between atoms: C_11  and  O_12
REMARK    6  A    between atoms: C_16  and  O_17
REMARK    7  A    between atoms: O_17  and  C_18
REMARK                            x       y       z     vdW  Elec       q    Type
REMARK                         _______ _______ _______ _____ _____    ______ ____
ROOT
ATOM      1  C   UNL     1      55.445  29.169 196.214  0.00  0.00    +0.000 A 
ATOM      2  C   UNL     1      54.187  28.834 196.690  0.00  0.00    +0.000 A 
ATOM      3  C   UNL     1      53.739  29.655 197.752  0.00  0.00    +0.000 A 
ATOM      4  C   UNL     1      54.522  30.422 198.488  0.00  0.00    +0.000 A 
ATOM      5  C   UNL     1      55.777  30.658 197.997  0.00  0.00    +0.000 A 
ATOM      6  C   UNL     1      56.238  29.993 196.888  0.00  0.00    +0.000 A 
ENDROOT
BRANCH   1   8
ATOM      7  C   UNL     1      55.747  27.066 194.976  0.00  0.00    +0.000 C 
ATOM      8  O   UNL     1      55.884  28.477 195.055  0.00  0.00    +0.000 OA
ENDBRANCH   1   8
BRANCH   3   9
ATOM      9  C   UNL     1      52.252  29.654 198.067  0.00  0.00    +0.000 C 
ATOM     10  C   UNL     1      51.719  28.661 198.829  0.00  0.00    +0.000 C 
BRANCH  10  11
ATOM     11  C   UNL     1      50.232  28.660 199.144  0.00  0.00    +0.000 A 
ATOM     12  C   UNL     1      49.739  29.151 200.342  0.00  0.00    +0.000 A 
ATOM     13  C   UNL     1      48.374  28.854 200.564  0.00  0.00    +0.000 A 
ATOM     14  C   UNL     1      47.525  28.480 199.625  0.00  0.00    +0.000 A 
ATOM     15  C   UNL     1      48.072  28.070 198.440  0.00  0.00    +0.000 A 
ATOM     16  C   UNL     1      49.418  28.207 198.198  0.00  0.00    +0.000 A 
BRANCH  14  17
ATOM     17  O   UNL     1      46.121  28.503 199.832  0.00  0.00    +0.000 OA
ATOM     18  H   UNL     1      45.502  28.595 199.053  0.00  0.00    +0.000 HD
ENDBRANCH  14  17
ENDBRANCH  10  11
ENDBRANCH   3   9
BRANCH   5  19
ATOM     19  O   UNL     1      56.614  31.607 198.643  0.00  0.00    +0.000 OA
ATOM     20  C   UNL     1      56.196  32.213 199.857  0.00  0.00    +0.000 C 
ENDBRANCH   5  19
TORSDOF 5
ENDMDL
MODEL 4
REMARK VINA RESULT:    -6.960      0.964      2.982
REMARK INTER + INTRA:          -9.264
REMARK INTER:                  -8.806
REMARK INTRA:                  -0.458
REMARK UNBOUND:                -0.472
REMARK  Name = 
REMARK  7 active torsions:
REMARK  status: ('A' for Active; 'I' for Inactive)
REMARK    1  A    between atoms: C_1  and  O_2
REMARK    2  A    between atoms: O_2  and  C_3
REMARK    3  A    between atoms: C_5  and  C_6
REMARK    4  A    between atoms: C_7  and  C_8
REMARK    5  A    between atoms: C_11  and  O_12
REMARK    6  A    between atoms: C_16  and  O_17
REMARK    7  A    between atoms: O_17  and  C_18
REMARK                            x       y       z     vdW  Elec       q    Type
REMARK                         _______ _______ _______ _____ _____    ______ ____
ROOT
ATOM      1  C   UNL     1      39.625  23.339 192.597  0.00  0.00    +0.000 A 
ATOM      2  C   UNL     1      40.972  23.196 192.300  0.00  0.00    +0.000 A 
ATOM      3  C   UNL     1      41.830  23.906 193.172  0.00  0.00    +0.000 A 
ATOM      4  C   UNL     1      41.447  24.893 193.961  0.00  0.00    +0.000 A 
ATOM      5  C   UNL     1      40.100  25.024 194.160  0.00  0.00    +0.000 A 
ATOM      6  C   UNL     1      39.203  24.273 193.441  0.00  0.00    +0.000 A 
ENDROOT
BRANCH   1   8
ATOM      7  C   UNL     1      38.693  21.129 192.054  0.00  0.00    +0.000 C 
ATOM      8  O   UNL     1      38.726  22.534 191.850  0.00  0.00    +0.000 OA
ENDBRANCH   1   8
BRANCH   3   9
ATOM      9  C   UNL     1      43.295  23.504 193.203  0.00  0.00    +0.000 C 
ATOM     10  C   UNL     1      43.830  22.967 194.333  0.00  0.00    +0.000 C 
BRANCH  10  11
ATOM     11  C   UNL     1      45.296  22.566 194.364  0.00  0.00    +0.000 A 
ATOM     12  C   UNL     1      46.274  23.414 194.856  0.00  0.00    +0.000 A 
ATOM     13  C   UNL     1      47.594  22.982 194.590  0.00  0.00    +0.000 A 
ATOM     14  C   UNL     1      47.924  21.751 194.244  0.00  0.00    +0.000 A 
ATOM     15  C   UNL     1      46.903  20.941 193.832  0.00  0.00    +0.000 A 
ATOM     16  C   UNL     1      45.594  21.344 193.939  0.00  0.00    +0.000 A 
BRANCH  14  17
ATOM     17  O   UNL     1      49.268  21.293 194.298  0.00  0.00    +0.000 OA
ATOM     18  H   UNL     1      49.783  21.357 195.153  0.00  0.00    +0.000 HD
ENDBRANCH  14  17
ENDBRANCH  10  11
ENDBRANCH   3   9
BRANCH   5  19
ATOM     19  O   UNL     1      39.622  25.950 195.125  0.00  0.00    +0.000 OA
ATOM     20  C   UNL     1      39.475  25.551 196.480  0.00  0.00    +0.000 C 
ENDBRANCH   5  19
TORSDOF 5
ENDMDL
MODEL 5
REMARK VINA RESULT:    -6.616     11.698     15.216
REMARK INTER + INTRA:          -8.829
REMARK INTER:                  -8.335
REMARK INTRA:                  -0.494
REMARK UNBOUND:                -0.472
REMARK  Name = 
REMARK  7 active torsions:
REMARK  status: ('A' for Active; 'I' for Inactive)
REMARK    1  A    between atoms: C_1  and  O_2
REMARK    2  A    between atoms: O_2  and  C_3
REMARK    3  A    between atoms: C_5  and  C_6
REMARK    4  A    between atoms: C_7  and  C_8
REMARK    5  A    between atoms: C_11  and  O_12
REMARK    6  A    between atoms: C_16  and  O_17
REMARK    7  A    between atoms: O_17  and  C_18
REMARK                            x       y       z     vdW  Elec       q    Type
REMARK                         _______ _______ _______ _____ _____    ______ ____
ROOT
ATOM      1  C   UNL     1      52.610  28.473 196.433  0.00  0.00    +0.000 A 
ATOM      2  C   UNL     1      53.147  29.662 196.901  0.00  0.00    +0.000 A 
ATOM      3  C   UNL     1      52.481  30.186 198.034  0.00  0.00    +0.000 A 
ATOM      4  C   UNL     1      51.269  29.831 198.421  0.00  0.00    +0.000 A 
ATOM      5  C   UNL     1      50.767  28.684 197.871  0.00  0.00    +0.000 A 
ATOM      6  C   UNL     1      51.425  28.042 196.850  0.00  0.00    +0.000 A 
ENDROOT
BRANCH   1   8
ATOM      7  C   UNL     1      54.432  26.992 195.703  0.00  0.00    +0.000 C 
ATOM      8  O   UNL     1      53.325  27.825 195.392  0.00  0.00    +0.000 OA
ENDBRANCH   1   8
BRANCH   3   9
ATOM      9  C   UNL     1      53.210  31.229 198.863  0.00  0.00    +0.000 C 
ATOM     10  C   UNL     1      54.563  31.347 198.772  0.00  0.00    +0.000 C 
BRANCH  10  11
ATOM     11  C   UNL     1      55.292  32.391 199.602  0.00  0.00    +0.000 A 
ATOM     12  C   UNL     1      56.675  32.428 199.677  0.00  0.00    +0.000 A 
ATOM     13  C   UNL     1      57.171  33.301 200.674  0.00  0.00    +0.000 A 
ATOM     14  C   UNL     1      56.471  34.263 201.244  0.00  0.00    +0.000 A 
ATOM     15  C   UNL     1      55.114  34.208 201.076  0.00  0.00    +0.000 A 
ATOM     16  C   UNL     1      54.544  33.298 200.219  0.00  0.00    +0.000 A 
BRANCH  14  17
ATOM     17  O   UNL     1      57.091  35.299 201.991  0.00  0.00    +0.000 OA
ATOM     18  H   UNL     1      57.924  35.110 202.510  0.00  0.00    +0.000 HD
ENDBRANCH  14  17
ENDBRANCH  10  11
ENDBRANCH   3   9
BRANCH   5  19
ATOM     19  O   UNL     1      49.547  28.147 198.362  0.00  0.00    +0.000 OA
ATOM     20  C   UNL     1      48.856  28.802 199.415  0.00  0.00    +0.000 C 
ENDBRANCH   5  19
TORSDOF 5
ENDMDL
MODEL 6
REMARK VINA RESULT:    -6.597      2.356      6.888
REMARK INTER + INTRA:          -8.805
REMARK INTER:                  -8.333
REMARK INTRA:                  -0.473
REMARK UNBOUND:                -0.472
REMARK  Name = 
REMARK  7 active torsions:
REMARK  status: ('A' for Active; 'I' for Inactive)
REMARK    1  A    between atoms: C_1  and  O_2
REMARK    2  A    between atoms: O_2  and  C_3
REMARK    3  A    between atoms: C_5  and  C_6
REMARK    4  A    between atoms: C_7  and  C_8
REMARK    5  A    between atoms: C_11  and  O_12
REMARK    6  A    between atoms: C_16  and  O_17
REMARK    7  A    between atoms: O_17  and  C_18
REMARK                            x       y       z     vdW  Elec       q    Type
REMARK                         _______ _______ _______ _____ _____    ______ ____
ROOT
ATOM      1  C   UNL     1      42.459  24.125 194.082  0.00  0.00    +0.000 A 
ATOM      2  C   UNL     1      41.739  23.555 193.044  0.00  0.00    +0.000 A 
ATOM      3  C   UNL     1      42.461  22.584 192.311  0.00  0.00    +0.000 A 
ATOM      4  C   UNL     1      43.775  22.456 192.329  0.00  0.00    +0.000 A 
ATOM      5  C   UNL     1      44.435  23.100 193.339  0.00  0.00    +0.000 A 
ATOM      6  C   UNL     1      43.774  23.963 194.178  0.00  0.00    +0.000 A 
ENDROOT
BRANCH   1   8
ATOM      7  C   UNL     1      40.776  25.888 194.405  0.00  0.00    +0.000 C 
ATOM      8  O   UNL     1      41.741  24.997 194.943  0.00  0.00    +0.000 OA
ENDBRANCH   1   8
BRANCH   3   9
ATOM      9  C   UNL     1      41.669  21.620 191.443  0.00  0.00    +0.000 C 
ATOM     10  C   UNL     1      40.639  20.910 191.979  0.00  0.00    +0.000 C 
BRANCH  10  11
ATOM     11  C   UNL     1      39.848  19.946 191.111  0.00  0.00    +0.000 A 
ATOM     12  C   UNL     1      38.462  19.928 191.117  0.00  0.00    +0.000 A 
ATOM     13  C   UNL     1      37.901  18.819 190.441  0.00  0.00    +0.000 A 
ATOM     14  C   UNL     1      38.551  18.061 189.577  0.00  0.00    +0.000 A 
ATOM     15  C   UNL     1      39.914  18.175 189.573  0.00  0.00    +0.000 A 
ATOM     16  C   UNL     1      40.544  19.149 190.309  0.00  0.00    +0.000 A 
BRANCH  14  17
ATOM     17  O   UNL     1      37.872  17.175 188.700  0.00  0.00    +0.000 OA
ATOM     18  H   UNL     1      37.747  16.216 188.955  0.00  0.00    +0.000 HD
ENDBRANCH  14  17
ENDBRANCH  10  11
ENDBRANCH   3   9
BRANCH   5  19
ATOM     19  O   UNL     1      45.825  22.871 193.525  0.00  0.00    +0.000 OA
ATOM     20  C   UNL     1      46.266  21.765 194.297  0.00  0.00    +0.000 C 
ENDBRANCH   5  19
TORSDOF 5
ENDMDL
MODEL 7
REMARK VINA RESULT:    -6.567      9.994     12.929
REMARK INTER + INTRA:          -8.767
REMARK INTER:                  -8.315
REMARK INTRA:                  -0.452
REMARK UNBOUND:                -0.472
REMARK  Name = 
REMARK  7 active torsions:
REMARK  status: ('A' for Active; 'I' for Inactive)
REMARK    1  A    between atoms: C_1  and  O_2
REMARK    2  A    between atoms: O_2  and  C_3
REMARK    3  A    between atoms: C_5  and  C_6
REMARK    4  A    between atoms: C_7  and  C_8
REMARK    5  A    between atoms: C_11  and  O_12
REMARK    6  A    between atoms: C_16  and  O_17
REMARK    7  A    between atoms: O_17  and  C_18
REMARK                            x       y       z     vdW  Elec       q    Type
REMARK                         _______ _______ _______ _____ _____    ______ ____
ROOT
ATOM      1  C   UNL     1      51.032  28.801 201.813  0.00  0.00    +0.000 A 
ATOM      2  C   UNL     1      52.036  28.570 200.886  0.00  0.00    +0.000 A 
ATOM      3  C   UNL     1      51.598  28.628 199.541  0.00  0.00    +0.000 A 
ATOM      4  C   UNL     1      50.337  28.541 199.160  0.00  0.00    +0.000 A 
ATOM      5  C   UNL     1      49.394  28.709 200.136  0.00  0.00    +0.000 A 
ATOM      6  C   UNL     1      49.753  28.793 201.459  0.00  0.00    +0.000 A 
ENDROOT
BRANCH   1   8
ATOM      7  C   UNL     1      51.372  30.152 203.840  0.00  0.00    +0.000 C 
ATOM      8  O   UNL     1      51.439  28.902 203.170  0.00  0.00    +0.000 OA
ENDBRANCH   1   8
BRANCH   3   9
ATOM      9  C   UNL     1      52.653  28.802 198.462  0.00  0.00    +0.000 C 
ATOM     10  C   UNL     1      52.724  27.917 197.430  0.00  0.00    +0.000 C 
BRANCH  10  11
ATOM     11  C   UNL     1      53.779  28.090 196.351  0.00  0.00    +0.000 A 
ATOM     12  C   UNL     1      54.369  27.004 195.725  0.00  0.00    +0.000 A 
ATOM     13  C   UNL     1      55.489  27.340 194.929  0.00  0.00    +0.000 A 
ATOM     14  C   UNL     1      55.765  28.557 194.499  0.00  0.00    +0.000 A 
ATOM     15  C   UNL     1      55.099  29.583 195.112  0.00  0.00    +0.000 A 
ATOM     16  C   UNL     1      54.080  29.335 195.999  0.00  0.00    +0.000 A 
BRANCH  14  17
ATOM     17  O   UNL     1      56.702  28.789 193.458  0.00  0.00    +0.000 OA
ATOM     18  H   UNL     1      56.870  29.720 193.135  0.00  0.00    +0.000 HD
ENDBRANCH  14  17
ENDBRANCH  10  11
ENDBRANCH   3   9
BRANCH   5  19
ATOM     19  O   UNL     1      48.023  28.799 199.776  0.00  0.00    +0.000 OA
ATOM     20  C   UNL     1      47.519  28.029 198.695  0.00  0.00    +0.000 C 
ENDBRANCH   5  19
TORSDOF 5
ENDMDL
MODEL 8
REMARK VINA RESULT:    -6.565     12.970     16.449
REMARK INTER + INTRA:          -8.764
REMARK INTER:                  -8.291
REMARK INTRA:                  -0.473
REMARK UNBOUND:                -0.472
REMARK  Name = 
REMARK  7 active torsions:
REMARK  status: ('A' for Active; 'I' for Inactive)
REMARK    1  A    between atoms: C_1  and  O_2
REMARK    2  A    between atoms: O_2  and  C_3
REMARK    3  A    between atoms: C_5  and  C_6
REMARK    4  A    between atoms: C_7  and  C_8
REMARK    5  A    between atoms: C_11  and  O_12
REMARK    6  A    between atoms: C_16  and  O_17
REMARK    7  A    between atoms: O_17  and  C_18
REMARK                            x       y       z     vdW  Elec       q    Type
REMARK                         _______ _______ _______ _____ _____    ______ ____
ROOT
ATOM      1  C   UNL     1      53.641  29.576 196.724  0.00  0.00    +0.000 A 
ATOM      2  C   UNL     1      54.286  30.658 197.302  0.00  0.00    +0.000 A 
ATOM      3  C   UNL     1      53.451  31.450 198.126  0.00  0.00    +0.000 A 
ATOM      4  C   UNL     1      52.131  31.428 198.096  0.00  0.00    +0.000 A 
ATOM      5  C   UNL     1      51.555  30.369 197.450  0.00  0.00    +0.000 A 
ATOM      6  C   UNL     1      52.316  29.479 196.733  0.00  0.00    +0.000 A 
ENDROOT
BRANCH   1   8
ATOM      7  C   UNL     1      55.125  29.087 194.825  0.00  0.00    +0.000 C 
ATOM      8  O   UNL     1      54.459  28.665 196.006  0.00  0.00    +0.000 OA
ENDBRANCH   1   8
BRANCH   3   9
ATOM      9  C   UNL     1      54.120  32.390 199.115  0.00  0.00    +0.000 C 
ATOM     10  C   UNL     1      55.393  32.147 199.530  0.00  0.00    +0.000 C 
BRANCH  10  11
ATOM     11  C   UNL     1      56.062  33.087 200.519  0.00  0.00    +0.000 A 
ATOM     12  C   UNL     1      57.406  33.410 200.425  0.00  0.00    +0.000 A 
ATOM     13  C   UNL     1      57.911  34.096 201.554  0.00  0.00    +0.000 A 
ATOM     14  C   UNL     1      57.164  34.708 202.455  0.00  0.00    +0.000 A 
ATOM     15  C   UNL     1      55.832  34.398 202.452  0.00  0.00    +0.000 A 
ATOM     16  C   UNL     1      55.288  33.625 201.455  0.00  0.00    +0.000 A 
BRANCH  14  17
ATOM     17  O   UNL     1      57.714  35.638 203.377  0.00  0.00    +0.000 OA
ATOM     18  H   UNL     1      58.255  35.312 204.152  0.00  0.00    +0.000 HD
ENDBRANCH  14  17
ENDBRANCH  10  11
ENDBRANCH   3   9
BRANCH   5  19
ATOM     19  O   UNL     1      50.148  30.186 197.523  0.00  0.00    +0.000 OA
ATOM     20  C   UNL     1      49.606  29.159 198.340  0.00  0.00    +0.000 C 
ENDBRANCH   5  19
TORSDOF 5
ENDMDL
MODEL 9
REMARK VINA RESULT:    -6.459      2.346      7.041
REMARK INTER + INTRA:          -8.630
REMARK INTER:                  -8.158
REMARK INTRA:                  -0.472
REMARK UNBOUND:                -0.472
REMARK  Name = 
REMARK  7 active torsions:
REMARK  status: ('A' for Active; 'I' for Inactive)
REMARK    1  A    between atoms: C_1  and  O_2
REMARK    2  A    between atoms: O_2  and  C_3
REMARK    3  A    between atoms: C_5  and  C_6
REMARK    4  A    between atoms: C_7  and  C_8
REMARK    5  A    between atoms: C_11  and  O_12
REMARK    6  A    between atoms: C_16  and  O_17
REMARK    7  A    between atoms: O_17  and  C_18
REMARK                            x       y       z     vdW  Elec       q    Type
REMARK                         _______ _______ _______ _____ _____    ______ ____
ROOT
ATOM      1  C   UNL     1      46.155  20.982 194.219  0.00  0.00    +0.000 A 
ATOM      2  C   UNL     1      45.202  21.792 193.622  0.00  0.00    +0.000 A 
ATOM      3  C   UNL     1      43.875  21.327 193.780  0.00  0.00    +0.000 A 
ATOM      4  C   UNL     1      43.549  20.094 194.124  0.00  0.00    +0.000 A 
ATOM      5  C   UNL     1      44.551  19.323 194.643  0.00  0.00    +0.000 A 
ATOM      6  C   UNL     1      45.853  19.761 194.643  0.00  0.00    +0.000 A 
ENDROOT
BRANCH   1   8
ATOM      7  C   UNL     1      47.744  22.827 194.563  0.00  0.00    +0.000 C 
ATOM      8  O   UNL     1      47.487  21.473 194.220  0.00  0.00    +0.000 OA
ENDBRANCH   1   8
BRANCH   3   9
ATOM      9  C   UNL     1      42.746  22.315 193.539  0.00  0.00    +0.000 C 
ATOM     10  C   UNL     1      42.572  23.369 194.382  0.00  0.00    +0.000 C 
BRANCH  10  11
ATOM     11  C   UNL     1      41.443  24.357 194.141  0.00  0.00    +0.000 A 
ATOM     12  C   UNL     1      40.913  25.125 195.165  0.00  0.00    +0.000 A 
ATOM     13  C   UNL     1      39.723  25.804 194.816  0.00  0.00    +0.000 A 
ATOM     14  C   UNL     1      39.317  26.016 193.578  0.00  0.00    +0.000 A 
ATOM     15  C   UNL     1      39.927  25.275 192.603  0.00  0.00    +0.000 A 
ATOM     16  C   UNL     1      41.014  24.486 192.891  0.00  0.00    +0.000 A 
BRANCH  14  17
ATOM     17  O   UNL     1      38.302  26.962 193.274  0.00  0.00    +0.000 OA
ATOM     18  H   UNL     1      37.460  26.982 193.813  0.00  0.00    +0.000 HD
ENDBRANCH  14  17
ENDBRANCH  10  11
ENDBRANCH   3   9
BRANCH   5  19
ATOM     19  O   UNL     1      44.242  18.049 195.191  0.00  0.00    +0.000 OA
ATOM     20  C   UNL     1      44.244  16.898 194.360  0.00  0.00    +0.000 C 
ENDBRANCH   5  19
TORSDOF 5
ENDMDL
