MODEL 1
REMARK VINA RESULT:    -7.368      0.000      0.000
REMARK INTER + INTRA:          -9.092
REMARK INTER:                  -8.625
REMARK INTRA:                  -0.467
REMARK UNBOUND:                -0.432
REMARK  Name = 
REMARK  5 active torsions:
REMARK  status: ('A' for Active; 'I' for Inactive)
REMARK    1  A    between atoms: C_4  and  C_5
REMARK    2  A    between atoms: C_14  and  O_15
REMARK    3  A    between atoms: O_15  and  C_16
REMARK    4  A    between atoms: C_18  and  O_19
REMARK    5  A    between atoms: O_19  and  C_20
REMARK                            x       y       z     vdW  Elec       q    Type
REMARK                         _______ _______ _______ _____ _____    ______ ____
ROOT
ATOM      1  O   UNL     1      54.247  30.578 200.999  0.00  0.00    +0.000 OA
ATOM      2  C   UNL     1      53.567  30.019 200.136  0.00  0.00    +0.000 A 
ATOM      3  C   UNL     1      52.184  29.613 200.289  0.00  0.00    +0.000 A 
ATOM      4  C   UNL     1      51.522  29.028 199.187  0.00  0.00    +0.000 A 
ATOM      5  O   UNL     1      52.131  28.751 198.015  0.00  0.00    +0.000 OA
ATOM      6  C   UNL     1      53.448  29.126 197.813  0.00  0.00    +0.000 A 
ATOM      7  C   UNL     1      53.973  28.849 196.560  0.00  0.00    +0.000 A 
ATOM      8  C   UNL     1      55.277  29.230 196.309  0.00  0.00    +0.000 A 
ATOM      9  C   UNL     1      56.036  29.866 197.282  0.00  0.00    +0.000 A 
ATOM     10  C   UNL     1      55.492  30.123 198.522  0.00  0.00    +0.000 A 
ATOM     11  C   UNL     1      54.173  29.748 198.808  0.00  0.00    +0.000 A 
ENDROOT
BRANCH   4  12
ATOM     12  C   UNL     1      50.047  28.695 199.327  0.00  0.00    +0.000 A 
ATOM     13  C   UNL     1      49.408  28.012 198.305  0.00  0.00    +0.000 A 
ATOM     14  C   UNL     1      47.997  28.013 198.407  0.00  0.00    +0.000 A 
ATOM     15  C   UNL     1      47.326  28.295 199.510  0.00  0.00    +0.000 A 
ATOM     16  C   UNL     1      48.030  28.908 200.509  0.00  0.00    +0.000 A 
ATOM     17  C   UNL     1      49.392  29.061 200.424  0.00  0.00    +0.000 A 
ENDBRANCH   4  12
BRANCH   8  18
ATOM     18  O   UNL     1      55.850  28.967 195.037  0.00  0.00    +0.000 OA
ATOM     19  C   UNL     1      55.815  27.653 194.499  0.00  0.00    +0.000 C 
ENDBRANCH   8  18
BRANCH  10  20
ATOM     20  O   UNL     1      56.272  30.772 199.514  0.00  0.00    +0.000 OA
ATOM     21  C   UNL     1      56.989  31.955 199.192  0.00  0.00    +0.000 C 
ENDBRANCH  10  20
TORSDOF 3
ENDMDL
MODEL 2
REMARK VINA RESULT:    -7.352     10.538     14.541
REMARK INTER + INTRA:          -9.074
REMARK INTER:                  -8.726
REMARK INTRA:                  -0.348
REMARK UNBOUND:                -0.432
REMARK  Name = 
REMARK  5 active torsions:
REMARK  status: ('A' for Active; 'I' for Inactive)
REMARK    1  A    between atoms: C_4  and  C_5
REMARK    2  A    between atoms: C_14  and  O_15
REMARK    3  A    between atoms: O_15  and  C_16
REMARK    4  A    between atoms: C_18  and  O_19
REMARK    5  A    between atoms: O_19  and  C_20
REMARK                            x       y       z     vdW  Elec       q    Type
REMARK                         _______ _______ _______ _____ _____    ______ ____
ROOT
ATOM      1  O   UNL     1      41.752  22.030 190.828  0.00  0.00    +0.000 OA
ATOM      2  C   UNL     1      42.266  22.363 191.898  0.00  0.00    +0.000 A 
ATOM      3  C   UNL     1      43.587  21.977 192.351  0.00  0.00    +0.000 A 
ATOM      4  C   UNL     1      44.058  22.484 193.583  0.00  0.00    +0.000 A 
ATOM      5  O   UNL     1      43.311  23.250 194.406  0.00  0.00    +0.000 OA
ATOM      6  C   UNL     1      42.047  23.655 194.018  0.00  0.00    +0.000 A 
ATOM      7  C   UNL     1      41.375  24.484 194.903  0.00  0.00    +0.000 A 
ATOM      8  C   UNL     1      40.119  24.932 194.542  0.00  0.00    +0.000 A 
ATOM      9  C   UNL     1      39.548  24.559 193.333  0.00  0.00    +0.000 A 
ATOM     10  C   UNL     1      40.234  23.729 192.473  0.00  0.00    +0.000 A 
ATOM     11  C   UNL     1      41.509  23.257 192.811  0.00  0.00    +0.000 A 
ENDROOT
BRANCH   4  12
ATOM     12  C   UNL     1      45.479  22.151 194.002  0.00  0.00    +0.000 A 
ATOM     13  C   UNL     1      46.277  23.149 194.540  0.00  0.00    +0.000 A 
ATOM     14  C   UNL     1      47.647  22.808 194.620  0.00  0.00    +0.000 A 
ATOM     15  C   UNL     1      48.118  21.575 194.551  0.00  0.00    +0.000 A 
ATOM     16  C   UNL     1      47.259  20.622 194.076  0.00  0.00    +0.000 A 
ATOM     17  C   UNL     1      45.936  20.913 193.850  0.00  0.00    +0.000 A 
ENDBRANCH   4  12
BRANCH   8  18
ATOM     18  O   UNL     1      39.401  25.785 195.420  0.00  0.00    +0.000 OA
ATOM     19  C   UNL     1      39.429  25.549 196.820  0.00  0.00    +0.000 C 
ENDBRANCH   8  18
BRANCH  10  20
ATOM     20  O   UNL     1      39.646  23.349 191.238  0.00  0.00    +0.000 OA
ATOM     21  C   UNL     1      38.550  22.446 191.221  0.00  0.00    +0.000 C 
ENDBRANCH  10  20
TORSDOF 3
ENDMDL
MODEL 3
REMARK VINA RESULT:    -7.245      1.272      3.327
REMARK INTER + INTRA:          -8.948
REMARK INTER:                  -8.612
REMARK INTRA:                  -0.336
REMARK UNBOUND:                -0.432
REMARK  Name = 
REMARK  5 active torsions:
REMARK  status: ('A' for Active; 'I' for Inactive)
REMARK    1  A    between atoms: C_4  and  C_5
REMARK    2  A    between atoms: C_14  and  O_15
REMARK    3  A    between atoms: O_15  and  C_16
REMARK    4  A    between atoms: C_18  and  O_19
REMARK    5  A    between atoms: O_19  and  C_20
REMARK                            x       y       z     vdW  Elec       q    Type
REMARK                         _______ _______ _______ _____ _____    ______ ____
ROOT
ATOM      1  O   UNL     1      53.433  27.295 195.714  0.00  0.00    +0.000 OA
ATOM      2  C   UNL     1      52.946  28.014 196.589  0.00  0.00    +0.000 A 
ATOM      3  C   UNL     1      51.603  27.896 197.121  0.00  0.00    +0.000 A 
ATOM      4  C   UNL     1      51.206  28.764 198.163  0.00  0.00    +0.000 A 
ATOM      5  O   UNL     1      51.985  29.757 198.640  0.00  0.00    +0.000 OA
ATOM      6  C   UNL     1      53.279  29.907 198.174  0.00  0.00    +0.000 A 
ATOM      7  C   UNL     1      54.023  30.919 198.762  0.00  0.00    +0.000 A 
ATOM      8  C   UNL     1      55.328  31.087 198.342  0.00  0.00    +0.000 A 
ATOM      9  C   UNL     1      55.875  30.271 197.361  0.00  0.00    +0.000 A 
ATOM     10  C   UNL     1      55.111  29.276 196.789  0.00  0.00    +0.000 A 
ATOM     11  C   UNL     1      53.784  29.081 197.191  0.00  0.00    +0.000 A 
ENDROOT
BRANCH   4  12
ATOM     12  C   UNL     1      49.831  28.569 198.778  0.00  0.00    +0.000 A 
ATOM     13  C   UNL     1      48.869  27.864 198.072  0.00  0.00    +0.000 A 
ATOM     14  C   UNL     1      47.562  27.993 198.597  0.00  0.00    +0.000 A 
ATOM     15  C   UNL     1      47.283  28.417 199.817  0.00  0.00    +0.000 A 
ATOM     16  C   UNL     1      48.295  29.045 200.488  0.00  0.00    +0.000 A 
ATOM     17  C   UNL     1      49.571  29.073 199.979  0.00  0.00    +0.000 A 
ENDBRANCH   4  12
BRANCH   8  18
ATOM     18  O   UNL     1      56.123  32.110 198.922  0.00  0.00    +0.000 OA
ATOM     19  C   UNL     1      55.887  32.521 200.261  0.00  0.00    +0.000 C 
ENDBRANCH   8  18
BRANCH  10  20
ATOM     20  O   UNL     1      55.674  28.444 195.785  0.00  0.00    +0.000 OA
ATOM     21  C   UNL     1      55.903  28.960 194.482  0.00  0.00    +0.000 C 
ENDBRANCH  10  20
TORSDOF 3
ENDMDL
MODEL 4
REMARK VINA RESULT:    -7.188     11.035     14.665
REMARK INTER + INTRA:          -8.881
REMARK INTER:                  -8.533
REMARK INTRA:                  -0.348
REMARK UNBOUND:                -0.432
REMARK  Name = 
REMARK  5 active torsions:
REMARK  status: ('A' for Active; 'I' for Inactive)
REMARK    1  A    between atoms: C_4  and  C_5
REMARK    2  A    between atoms: C_14  and  O_15
REMARK    3  A    between atoms: O_15  and  C_16
REMARK    4  A    between atoms: C_18  and  O_19
REMARK    5  A    between atoms: O_19  and  C_20
REMARK                            x       y       z     vdW  Elec       q    Type
REMARK                         _______ _______ _______ _____ _____    ______ ____
ROOT
ATOM      1  O   UNL     1      41.684  25.354 194.977  0.00  0.00    +0.000 OA
ATOM      2  C   UNL     1      42.112  24.329 194.443  0.00  0.00    +0.000 A 
ATOM      3  C   UNL     1      43.465  23.823 194.562  0.00  0.00    +0.000 A 
ATOM      4  C   UNL     1      43.792  22.602 193.932  0.00  0.00    +0.000 A 
ATOM      5  O   UNL     1      42.931  21.914 193.153  0.00  0.00    +0.000 OA
ATOM      6  C   UNL     1      41.624  22.347 193.014  0.00  0.00    +0.000 A 
ATOM      7  C   UNL     1      40.798  21.548 192.240  0.00  0.00    +0.000 A 
ATOM      8  C   UNL     1      39.479  21.932 192.096  0.00  0.00    +0.000 A 
ATOM      9  C   UNL     1      38.999  23.083 192.705  0.00  0.00    +0.000 A 
ATOM     10  C   UNL     1      39.844  23.865 193.464  0.00  0.00    +0.000 A 
ATOM     11  C   UNL     1      41.187  23.503 193.628  0.00  0.00    +0.000 A 
ENDROOT
BRANCH   4  12
ATOM     12  C   UNL     1      45.185  22.034 194.141  0.00  0.00    +0.000 A 
ATOM     13  C   UNL     1      46.250  22.903 194.314  0.00  0.00    +0.000 A 
ATOM     14  C   UNL     1      47.518  22.285 194.208  0.00  0.00    +0.000 A 
ATOM     15  C   UNL     1      47.728  20.984 194.301  0.00  0.00    +0.000 A 
ATOM     16  C   UNL     1      46.626  20.181 194.190  0.00  0.00    +0.000 A 
ATOM     17  C   UNL     1      45.361  20.717 194.157  0.00  0.00    +0.000 A 
ENDBRANCH   4  12
BRANCH   8  18
ATOM     18  O   UNL     1      38.600  21.137 191.314  0.00  0.00    +0.000 OA
ATOM     19  C   UNL     1      38.807  19.736 191.215  0.00  0.00    +0.000 C 
ENDBRANCH   8  18
BRANCH  10  20
ATOM     20  O   UNL     1      39.349  25.042 194.084  0.00  0.00    +0.000 OA
ATOM     21  C   UNL     1      39.027  26.178 193.294  0.00  0.00    +0.000 C 
ENDBRANCH  10  20
TORSDOF 3
ENDMDL
MODEL 5
REMARK VINA RESULT:    -7.038      2.207      6.497
REMARK INTER + INTRA:          -8.705
REMARK INTER:                  -8.243
REMARK INTRA:                  -0.462
REMARK UNBOUND:                -0.432
REMARK  Name = 
REMARK  5 active torsions:
REMARK  status: ('A' for Active; 'I' for Inactive)
REMARK    1  A    between atoms: C_4  and  C_5
REMARK    2  A    between atoms: C_14  and  O_15
REMARK    3  A    between atoms: O_15  and  C_16
REMARK    4  A    between atoms: C_18  and  O_19
REMARK    5  A    between atoms: O_19  and  C_20
REMARK                            x       y       z     vdW  Elec       q    Type
REMARK                         _______ _______ _______ _____ _____    ______ ____
ROOT
ATOM      1  O   UNL     1      56.377  29.971 196.529  0.00  0.00    +0.000 OA
ATOM      2  C   UNL     1      55.711  30.519 197.410  0.00  0.00    +0.000 A 
ATOM      3  C   UNL     1      56.242  31.372 198.455  0.00  0.00    +0.000 A 
ATOM      4  C   UNL     1      55.343  31.972 199.364  0.00  0.00    +0.000 A 
ATOM      5  O   UNL     1      54.015  31.731 199.365  0.00  0.00    +0.000 OA
ATOM      6  C   UNL     1      53.455  30.932 198.384  0.00  0.00    +0.000 A 
ATOM      7  C   UNL     1      52.077  30.786 198.432  0.00  0.00    +0.000 A 
ATOM      8  C   UNL     1      51.476  30.016 197.455  0.00  0.00    +0.000 A 
ATOM      9  C   UNL     1      52.229  29.407 196.460  0.00  0.00    +0.000 A 
ATOM     10  C   UNL     1      53.598  29.563 196.439  0.00  0.00    +0.000 A 
ATOM     11  C   UNL     1      54.238  30.336 197.416  0.00  0.00    +0.000 A 
ENDROOT
BRANCH   4  12
ATOM     12  C   UNL     1      55.899  32.939 200.395  0.00  0.00    +0.000 A 
ATOM     13  C   UNL     1      57.272  33.092 200.505  0.00  0.00    +0.000 A 
ATOM     14  C   UNL     1      57.681  33.781 201.671  0.00  0.00    +0.000 A 
ATOM     15  C   UNL     1      56.888  34.530 202.416  0.00  0.00    +0.000 A 
ATOM     16  C   UNL     1      55.544  34.382 202.212  0.00  0.00    +0.000 A 
ATOM     17  C   UNL     1      55.066  33.621 201.173  0.00  0.00    +0.000 A 
ENDBRANCH   4  12
BRANCH   8  18
ATOM     18  O   UNL     1      50.067  29.845 197.468  0.00  0.00    +0.000 OA
ATOM     19  C   UNL     1      49.448  29.126 198.525  0.00  0.00    +0.000 C 
ENDBRANCH   8  18
BRANCH  10  20
ATOM     20  O   UNL     1      54.364  28.937 195.421  0.00  0.00    +0.000 OA
ATOM     21  C   UNL     1      54.148  27.568 195.111  0.00  0.00    +0.000 C 
ENDBRANCH  10  20
TORSDOF 3
ENDMDL
MODEL 6
REMARK VINA RESULT:    -6.955     12.762     16.198
REMARK INTER + INTRA:          -8.607
REMARK INTER:                  -8.142
REMARK INTRA:                  -0.465
REMARK UNBOUND:                -0.432
REMARK  Name = 
REMARK  5 active torsions:
REMARK  status: ('A' for Active; 'I' for Inactive)
REMARK    1  A    between atoms: C_4  and  C_5
REMARK    2  A    between atoms: C_14  and  O_15
REMARK    3  A    between atoms: O_15  and  C_16
REMARK    4  A    between atoms: C_18  and  O_19
REMARK    5  A    between atoms: O_19  and  C_20
REMARK                            x       y       z     vdW  Elec       q    Type
REMARK                         _______ _______ _______ _____ _____    ______ ____
ROOT
ATOM      1  O   UNL     1      38.697  23.619 192.864  0.00  0.00    +0.000 OA
ATOM      2  C   UNL     1      39.393  22.674 192.484  0.00  0.00    +0.000 A 
ATOM      3  C   UNL     1      38.892  21.427 191.941  0.00  0.00    +0.000 A 
ATOM      4  C   UNL     1      39.819  20.458 191.499  0.00  0.00    +0.000 A 
ATOM      5  O   UNL     1      41.156  20.595 191.627  0.00  0.00    +0.000 OA
ATOM      6  C   UNL     1      41.687  21.769 192.130  0.00  0.00    +0.000 A 
ATOM      7  C   UNL     1      43.071  21.840 192.173  0.00  0.00    +0.000 A 
ATOM      8  C   UNL     1      43.642  23.006 192.646  0.00  0.00    +0.000 A 
ATOM      9  C   UNL     1      42.854  24.069 193.066  0.00  0.00    +0.000 A 
ATOM     10  C   UNL     1      41.480  23.970 193.018  0.00  0.00    +0.000 A 
ATOM     11  C   UNL     1      40.871  22.801 192.546  0.00  0.00    +0.000 A 
ENDROOT
BRANCH   4  12
ATOM     12  C   UNL     1      39.284  19.195 190.845  0.00  0.00    +0.000 A 
ATOM     13  C   UNL     1      37.915  18.988 190.796  0.00  0.00    +0.000 A 
ATOM     14  C   UNL     1      37.546  17.671 190.437  0.00  0.00    +0.000 A 
ATOM     15  C   UNL     1      38.350  16.801 189.851  0.00  0.00    +0.000 A 
ATOM     16  C   UNL     1      39.685  17.096 189.873  0.00  0.00    +0.000 A 
ATOM     17  C   UNL     1      40.133  18.312 190.330  0.00  0.00    +0.000 A 
ENDBRANCH   4  12
BRANCH   8  18
ATOM     18  O   UNL     1      45.056  23.119 192.703  0.00  0.00    +0.000 OA
ATOM     19  C   UNL     1      45.818  22.158 193.419  0.00  0.00    +0.000 C 
ENDBRANCH   8  18
BRANCH  10  20
ATOM     20  O   UNL     1      40.679  25.059 193.450  0.00  0.00    +0.000 OA
ATOM     21  C   UNL     1      40.950  25.691 194.692  0.00  0.00    +0.000 C 
ENDBRANCH  10  20
TORSDOF 3
ENDMDL
MODEL 7
REMARK VINA RESULT:    -6.836     13.061     17.127
REMARK INTER + INTRA:          -8.467
REMARK INTER:                  -8.025
REMARK INTRA:                  -0.442
REMARK UNBOUND:                -0.432
REMARK  Name = 
REMARK  5 active torsions:
REMARK  status: ('A' for Active; 'I' for Inactive)
REMARK    1  A    between atoms: C_4  and  C_5
REMARK    2  A    between atoms: C_14  and  O_15
REMARK    3  A    between atoms: O_15  and  C_16
REMARK    4  A    between atoms: C_18  and  O_19
REMARK    5  A    between atoms: O_19  and  C_20
REMARK                            x       y       z     vdW  Elec       q    Type
REMARK                         _______ _______ _______ _____ _____    ______ ____
ROOT
ATOM      1  O   UNL     1      39.672  23.492 191.201  0.00  0.00    +0.000 OA
ATOM      2  C   UNL     1      40.354  22.544 191.595  0.00  0.00    +0.000 A 
ATOM      3  C   UNL     1      41.716  22.635 192.083  0.00  0.00    +0.000 A 
ATOM      4  C   UNL     1      42.350  21.463 192.551  0.00  0.00    +0.000 A 
ATOM      5  O   UNL     1      41.784  20.239 192.496  0.00  0.00    +0.000 OA
ATOM      6  C   UNL     1      40.483  20.097 192.047  0.00  0.00    +0.000 A 
ATOM      7  C   UNL     1      39.968  18.810 192.077  0.00  0.00    +0.000 A 
ATOM      8  C   UNL     1      38.663  18.629 191.660  0.00  0.00    +0.000 A 
ATOM      9  C   UNL     1      37.896  19.700 191.224  0.00  0.00    +0.000 A 
ATOM     10  C   UNL     1      38.435  20.969 191.198  0.00  0.00    +0.000 A 
ATOM     11  C   UNL     1      39.755  21.185 191.612  0.00  0.00    +0.000 A 
ENDROOT
BRANCH   4  12
ATOM     12  C   UNL     1      43.741  21.587 193.149  0.00  0.00    +0.000 A 
ATOM     13  C   UNL     1      44.109  20.743 194.185  0.00  0.00    +0.000 A 
ATOM     14  C   UNL     1      45.295  21.133 194.850  0.00  0.00    +0.000 A 
ATOM     15  C   UNL     1      46.186  21.976 194.360  0.00  0.00    +0.000 A 
ATOM     16  C   UNL     1      45.784  22.733 193.295  0.00  0.00    +0.000 A 
ATOM     17  C   UNL     1      44.582  22.498 192.673  0.00  0.00    +0.000 A 
ENDBRANCH   4  12
BRANCH   8  18
ATOM     18  O   UNL     1      38.098  17.327 191.679  0.00  0.00    +0.000 OA
ATOM     19  C   UNL     1      36.846  17.086 191.053  0.00  0.00    +0.000 C 
ENDBRANCH   8  18
BRANCH  10  20
ATOM     20  O   UNL     1      37.648  22.062 190.750  0.00  0.00    +0.000 OA
ATOM     21  C   UNL     1      36.426  21.823 190.067  0.00  0.00    +0.000 C 
ENDBRANCH  10  20
TORSDOF 3
ENDMDL
MODEL 8
REMARK VINA RESULT:    -6.824      2.058      4.102
REMARK INTER + INTRA:          -8.453
REMARK INTER:                  -8.010
REMARK INTRA:                  -0.443
REMARK UNBOUND:                -0.432
REMARK  Name = 
REMARK  5 active torsions:
REMARK  status: ('A' for Active; 'I' for Inactive)
REMARK    1  A    between atoms: C_4  and  C_5
REMARK    2  A    between atoms: C_14  and  O_15
REMARK    3  A    between atoms: O_15  and  C_16
REMARK    4  A    between atoms: C_18  and  O_19
REMARK    5  A    between atoms: O_19  and  C_20
REMARK                            x       y       z     vdW  Elec       q    Type
REMARK                         _______ _______ _______ _____ _____    ______ ____
ROOT
ATOM      1  O   UNL     1      55.257  31.658 196.478  0.00  0.00    +0.000 OA
ATOM      2  C   UNL     1      54.730  31.328 197.543  0.00  0.00    +0.000 A 
ATOM      3  C   UNL     1      53.430  30.701 197.677  0.00  0.00    +0.000 A 
ATOM      4  C   UNL     1      52.983  30.334 198.965  0.00  0.00    +0.000 A 
ATOM      5  O   UNL     1      53.666  30.608 200.096  0.00  0.00    +0.000 OA
ATOM      6  C   UNL     1      54.916  31.197 200.024  0.00  0.00    +0.000 A 
ATOM      7  C   UNL     1      55.567  31.391 201.232  0.00  0.00    +0.000 A 
ATOM      8  C   UNL     1      56.828  31.954 201.203  0.00  0.00    +0.000 A 
ATOM      9  C   UNL     1      57.421  32.317 200.001  0.00  0.00    +0.000 A 
ATOM     10  C   UNL     1      56.749  32.119 198.814  0.00  0.00    +0.000 A 
ATOM     11  C   UNL     1      55.469  31.552 198.811  0.00  0.00    +0.000 A 
ENDROOT
BRANCH   4  12
ATOM     12  C   UNL     1      51.663  29.591 199.084  0.00  0.00    +0.000 A 
ATOM     13  C   UNL     1      50.793  29.583 198.006  0.00  0.00    +0.000 A 
ATOM     14  C   UNL     1      49.493  29.122 198.321  0.00  0.00    +0.000 A 
ATOM     15  C   UNL     1      49.186  28.425 199.400  0.00  0.00    +0.000 A 
ATOM     16  C   UNL     1      50.116  28.416 200.403  0.00  0.00    +0.000 A 
ATOM     17  C   UNL     1      51.363  28.962 200.215  0.00  0.00    +0.000 A 
ENDBRANCH   4  12
BRANCH   8  18
ATOM     18  O   UNL     1      57.529  32.166 202.419  0.00  0.00    +0.000 OA
ATOM     19  C   UNL     1      58.425  31.177 202.905  0.00  0.00    +0.000 C 
ENDBRANCH   8  18
BRANCH  10  20
ATOM     20  O   UNL     1      57.359  32.493 197.587  0.00  0.00    +0.000 OA
ATOM     21  C   UNL     1      58.529  33.297 197.592  0.00  0.00    +0.000 C 
ENDBRANCH  10  20
TORSDOF 3
ENDMDL
MODEL 9
REMARK VINA RESULT:    -6.672      1.882      6.225
REMARK INTER + INTRA:          -8.275
REMARK INTER:                  -7.843
REMARK INTRA:                  -0.432
REMARK UNBOUND:                -0.432
REMARK  Name = 
REMARK  5 active torsions:
REMARK  status: ('A' for Active; 'I' for Inactive)
REMARK    1  A    between atoms: C_4  and  C_5
REMARK    2  A    between atoms: C_14  and  O_15
REMARK    3  A    between atoms: O_15  and  C_16
REMARK    4  A    between atoms: C_18  and  O_19
REMARK    5  A    between atoms: O_19  and  C_20
REMARK                            x       y       z     vdW  Elec       q    Type
REMARK                         _______ _______ _______ _____ _____    ______ ____
ROOT
ATOM      1  O   UNL     1      54.099  28.756 201.311  0.00  0.00    +0.000 OA
ATOM      2  C   UNL     1      53.579  28.701 200.195  0.00  0.00    +0.000 A 
ATOM      3  C   UNL     1      54.295  28.588 198.940  0.00  0.00    +0.000 A 
ATOM      4  C   UNL     1      53.554  28.482 197.742  0.00  0.00    +0.000 A 
ATOM      5  O   UNL     1      52.208  28.559 197.691  0.00  0.00    +0.000 OA
ATOM      6  C   UNL     1      51.475  28.658 198.860  0.00  0.00    +0.000 A 
ATOM      7  C   UNL     1      50.097  28.677 198.714  0.00  0.00    +0.000 A 
ATOM      8  C   UNL     1      49.327  28.749 199.859  0.00  0.00    +0.000 A 
ATOM      9  C   UNL     1      49.917  28.804 201.114  0.00  0.00    +0.000 A 
ATOM     10  C   UNL     1      51.291  28.790 201.232  0.00  0.00    +0.000 A 
ATOM     11  C   UNL     1      52.098  28.720 200.090  0.00  0.00    +0.000 A 
ENDROOT
BRANCH   4  12
ATOM     12  C   UNL     1      54.313  28.268 196.443  0.00  0.00    +0.000 A 
ATOM     13  C   UNL     1      54.569  26.975 196.015  0.00  0.00    +0.000 A 
ATOM     14  C   UNL     1      55.518  26.894 194.969  0.00  0.00    +0.000 A 
ATOM     15  C   UNL     1      55.876  27.908 194.202  0.00  0.00    +0.000 A 
ATOM     16  C   UNL     1      55.535  29.156 194.646  0.00  0.00    +0.000 A 
ATOM     17  C   UNL     1      54.718  29.319 195.739  0.00  0.00    +0.000 A 
ENDBRANCH   4  12
BRANCH   8  18
ATOM     18  O   UNL     1      47.912  28.767 199.750  0.00  0.00    +0.000 OA
ATOM     19  C   UNL     1      47.268  28.025 198.725  0.00  0.00    +0.000 C 
ENDBRANCH   8  18
BRANCH  10  20
ATOM     20  O   UNL     1      51.889  28.849 202.518  0.00  0.00    +0.000 OA
ATOM     21  C   UNL     1      51.406  29.769 203.485  0.00  0.00    +0.000 C 
ENDBRANCH  10  20
TORSDOF 3
ENDMDL
