MODEL 1
REMARK VINA RESULT:    -6.604      0.000      0.000
REMARK INTER + INTRA:         -12.807
REMARK INTER:                  -9.838
REMARK INTRA:                  -2.970
REMARK UNBOUND:                -2.921
REMARK  Name = 
REMARK  10 active torsions:
REMARK  status: ('A' for Active; 'I' for Inactive)
REMARK    1  A    between atoms: C_1  and  O_2
REMARK    2  A    between atoms: O_2  and  C_3
REMARK    3  A    between atoms: C_5  and  C_6
REMARK    4  A    between atoms: C_7  and  C_8
REMARK    5  A    between atoms: C_8  and  C_10
REMARK    6  A    between atoms: C_10  and  C_11
REMARK    7  A    between atoms: C_11  and  C_12
REMARK    8  A    between atoms: C_12  and  C_13
REMARK    9  A    between atoms: C_13  and  C_14
REMARK   10  A    between atoms: C_22  and  O_23
REMARK                            x       y       z     vdW  Elec       q    Type
REMARK                         _______ _______ _______ _____ _____    ______ ____
ROOT
ATOM      1  C   UNL     1      43.442  23.785 194.610  0.00  0.00    +0.000 C 
ATOM      2  C   UNL     1      44.249  23.229 193.665  0.00  0.00    +0.000 C 
ENDROOT
BRANCH   1   5
ATOM      3  C   UNL     1      40.076  25.493 194.774  0.00  0.00    +0.000 A 
ATOM      4  C   UNL     1      41.236  24.857 195.148  0.00  0.00    +0.000 A 
ATOM      5  C   UNL     1      42.171  24.506 194.194  0.00  0.00    +0.000 A 
ATOM      6  C   UNL     1      41.957  24.807 192.871  0.00  0.00    +0.000 A 
ATOM      7  C   UNL     1      40.811  25.470 192.488  0.00  0.00    +0.000 A 
ATOM      8  C   UNL     1      39.844  25.841 193.427  0.00  0.00    +0.000 A 
BRANCH   3  10
ATOM      9  C   UNL     1      39.490  25.415 197.084  0.00  0.00    +0.000 C 
ATOM     10  O   UNL     1      39.185  25.789 195.748  0.00  0.00    +0.000 OA
ENDBRANCH   3  10
BRANCH   8  11
ATOM     11  O   UNL     1      38.671  26.540 193.039  0.00  0.00    +0.000 OA
ATOM     12  H   UNL     1      37.781  26.086 193.080  0.00  0.00    +0.000 HD
ENDBRANCH   8  11
ENDBRANCH   1   5
BRANCH   2  13
ATOM     13  C   UNL     1      45.520  22.507 194.081  0.00  0.00    +0.000 C 
ATOM     14  O   UNL     1      46.518  23.170 194.506  0.00  0.00    +0.000 OA
BRANCH  13  15
ATOM     15  C   UNL     1      45.599  20.991 193.989  0.00  0.00    +0.000 C 
BRANCH  15  16
ATOM     16  C   UNL     1      44.607  20.373 194.961  0.00  0.00    +0.000 C 
BRANCH  16  17
ATOM     17  C   UNL     1      43.462  19.743 194.184  0.00  0.00    +0.000 C 
BRANCH  17  18
ATOM     18  C   UNL     1      42.151  20.388 194.603  0.00  0.00    +0.000 C 
BRANCH  18  19
ATOM     19  C   UNL     1      41.409  20.876 193.370  0.00  0.00    +0.000 A 
ATOM     20  C   UNL     1      42.008  20.843 192.122  0.00  0.00    +0.000 A 
ATOM     21  C   UNL     1      41.339  21.616 191.144  0.00  0.00    +0.000 A 
ATOM     22  C   UNL     1      40.093  22.040 191.248  0.00  0.00    +0.000 A 
ATOM     23  C   UNL     1      39.533  21.983 192.495  0.00  0.00    +0.000 A 
ATOM     24  C   UNL     1      40.182  21.360 193.533  0.00  0.00    +0.000 A 
ENDBRANCH  18  19
ENDBRANCH  17  18
ENDBRANCH  16  17
ENDBRANCH  15  16
ENDBRANCH  13  15
ENDBRANCH   2  13
TORSDOF 9
ENDMDL
MODEL 2
REMARK VINA RESULT:    -6.500     11.081     14.610
REMARK INTER + INTRA:         -12.651
REMARK INTER:                  -9.644
REMARK INTRA:                  -3.008
REMARK UNBOUND:                -2.921
REMARK  Name = 
REMARK  10 active torsions:
REMARK  status: ('A' for Active; 'I' for Inactive)
REMARK    1  A    between atoms: C_1  and  O_2
REMARK    2  A    between atoms: O_2  and  C_3
REMARK    3  A    between atoms: C_5  and  C_6
REMARK    4  A    between atoms: C_7  and  C_8
REMARK    5  A    between atoms: C_8  and  C_10
REMARK    6  A    between atoms: C_10  and  C_11
REMARK    7  A    between atoms: C_11  and  C_12
REMARK    8  A    between atoms: C_12  and  C_13
REMARK    9  A    between atoms: C_13  and  C_14
REMARK   10  A    between atoms: C_22  and  O_23
REMARK                            x       y       z     vdW  Elec       q    Type
REMARK                         _______ _______ _______ _____ _____    ______ ____
ROOT
ATOM      1  C   UNL     1      51.728  27.963 197.213  0.00  0.00    +0.000 C 
ATOM      2  C   UNL     1      50.930  28.995 197.598  0.00  0.00    +0.000 C 
ENDROOT
BRANCH   1   5
ATOM      3  C   UNL     1      54.994  27.480 195.375  0.00  0.00    +0.000 A 
ATOM      4  C   UNL     1      53.891  27.241 196.160  0.00  0.00    +0.000 A 
ATOM      5  C   UNL     1      52.936  28.225 196.328  0.00  0.00    +0.000 A 
ATOM      6  C   UNL     1      53.073  29.438 195.700  0.00  0.00    +0.000 A 
ATOM      7  C   UNL     1      54.159  29.679 194.888  0.00  0.00    +0.000 A 
ATOM      8  C   UNL     1      55.145  28.706 194.694  0.00  0.00    +0.000 A 
BRANCH   3  10
ATOM      9  C   UNL     1      55.658  25.258 195.929  0.00  0.00    +0.000 C 
ATOM     10  O   UNL     1      55.908  26.490 195.267  0.00  0.00    +0.000 OA
ENDBRANCH   3  10
BRANCH   8  11
ATOM     11  O   UNL     1      56.257  28.943 193.844  0.00  0.00    +0.000 OA
ATOM     12  H   UNL     1      56.656  29.858 193.788  0.00  0.00    +0.000 HD
ENDBRANCH   8  11
ENDBRANCH   1   5
BRANCH   2  13
ATOM     13  C   UNL     1      49.722  28.733 198.483  0.00  0.00    +0.000 C 
ATOM     14  O   UNL     1      48.674  28.209 197.990  0.00  0.00    +0.000 OA
BRANCH  13  15
ATOM     15  C   UNL     1      49.766  29.099 199.958  0.00  0.00    +0.000 C 
BRANCH  15  16
ATOM     16  C   UNL     1      50.868  28.306 200.643  0.00  0.00    +0.000 C 
BRANCH  16  17
ATOM     17  C   UNL     1      52.019  29.236 200.993  0.00  0.00    +0.000 C 
BRANCH  17  18
ATOM     18  C   UNL     1      53.311  28.680 200.418  0.00  0.00    +0.000 C 
BRANCH  18  19
ATOM     19  C   UNL     1      54.010  29.758 199.605  0.00  0.00    +0.000 A 
ATOM     20  C   UNL     1      53.419  30.995 199.414  0.00  0.00    +0.000 A 
ATOM     21  C   UNL     1      54.018  31.765 198.388  0.00  0.00    +0.000 A 
ATOM     22  C   UNL     1      55.220  31.541 197.890  0.00  0.00    +0.000 A 
ATOM     23  C   UNL     1      55.779  30.325 198.172  0.00  0.00    +0.000 A 
ATOM     24  C   UNL     1      55.187  29.465 199.064  0.00  0.00    +0.000 A 
ENDBRANCH  18  19
ENDBRANCH  17  18
ENDBRANCH  16  17
ENDBRANCH  15  16
ENDBRANCH  13  15
ENDBRANCH   2  13
TORSDOF 9
ENDMDL
MODEL 3
REMARK VINA RESULT:    -6.233      1.855      5.732
REMARK INTER + INTRA:         -12.250
REMARK INTER:                 -10.756
REMARK INTRA:                  -1.494
REMARK UNBOUND:                -2.921
REMARK  Name = 
REMARK  10 active torsions:
REMARK  status: ('A' for Active; 'I' for Inactive)
REMARK    1  A    between atoms: C_1  and  O_2
REMARK    2  A    between atoms: O_2  and  C_3
REMARK    3  A    between atoms: C_5  and  C_6
REMARK    4  A    between atoms: C_7  and  C_8
REMARK    5  A    between atoms: C_8  and  C_10
REMARK    6  A    between atoms: C_10  and  C_11
REMARK    7  A    between atoms: C_11  and  C_12
REMARK    8  A    between atoms: C_12  and  C_13
REMARK    9  A    between atoms: C_13  and  C_14
REMARK   10  A    between atoms: C_22  and  O_23
REMARK                            x       y       z     vdW  Elec       q    Type
REMARK                         _______ _______ _______ _____ _____    ______ ____
ROOT
ATOM      1  C   UNL     1      43.373  23.912 194.481  0.00  0.00    +0.000 C 
ATOM      2  C   UNL     1      42.118  23.387 194.477  0.00  0.00    +0.000 C 
ENDROOT
BRANCH   1   5
ATOM      3  C   UNL     1      45.492  20.785 194.589  0.00  0.00    +0.000 A 
ATOM      4  C   UNL     1      44.404  21.622 194.513  0.00  0.00    +0.000 A 
ATOM      5  C   UNL     1      44.581  22.991 194.545  0.00  0.00    +0.000 A 
ATOM      6  C   UNL     1      45.843  23.524 194.635  0.00  0.00    +0.000 A 
ATOM      7  C   UNL     1      46.943  22.696 194.684  0.00  0.00    +0.000 A 
ATOM      8  C   UNL     1      46.801  21.305 194.652  0.00  0.00    +0.000 A 
BRANCH   3  10
ATOM      9  C   UNL     1      43.986  18.984 195.006  0.00  0.00    +0.000 C 
ATOM     10  O   UNL     1      45.257  19.453 194.579  0.00  0.00    +0.000 OA
ENDBRANCH   3  10
BRANCH   8  11
ATOM     11  O   UNL     1      47.933  20.449 194.684  0.00  0.00    +0.000 OA
ATOM     12  H   UNL     1      48.492  20.390 195.510  0.00  0.00    +0.000 HD
ENDBRANCH   8  11
ENDBRANCH   1   5
BRANCH   2  13
ATOM     13  C   UNL     1      40.910  24.307 194.412  0.00  0.00    +0.000 C 
ATOM     14  O   UNL     1      40.777  25.244 195.262  0.00  0.00    +0.000 OA
BRANCH  13  15
ATOM     15  C   UNL     1      39.859  24.109 193.332  0.00  0.00    +0.000 C 
BRANCH  15  16
ATOM     16  C   UNL     1      40.530  24.100 191.968  0.00  0.00    +0.000 C 
BRANCH  16  17
ATOM     17  C   UNL     1      40.009  22.926 191.154  0.00  0.00    +0.000 C 
BRANCH  17  18
ATOM     18  C   UNL     1      41.169  22.022 190.770  0.00  0.00    +0.000 C 
BRANCH  18  19
ATOM     19  C   UNL     1      40.895  20.609 191.258  0.00  0.00    +0.000 A 
ATOM     20  C   UNL     1      40.966  20.299 192.605  0.00  0.00    +0.000 A 
ATOM     21  C   UNL     1      41.010  18.909 192.873  0.00  0.00    +0.000 A 
ATOM     22  C   UNL     1      40.658  17.970 192.013  0.00  0.00    +0.000 A 
ATOM     23  C   UNL     1      40.538  18.356 190.706  0.00  0.00    +0.000 A 
ATOM     24  C   UNL     1      40.614  19.680 190.351  0.00  0.00    +0.000 A 
ENDBRANCH  18  19
ENDBRANCH  17  18
ENDBRANCH  16  17
ENDBRANCH  15  16
ENDBRANCH  13  15
ENDBRANCH   2  13
TORSDOF 9
ENDMDL
MODEL 4
REMARK VINA RESULT:    -6.222     11.030     13.899
REMARK INTER + INTRA:         -12.235
REMARK INTER:                 -10.510
REMARK INTRA:                  -1.724
REMARK UNBOUND:                -2.921
REMARK  Name = 
REMARK  10 active torsions:
REMARK  status: ('A' for Active; 'I' for Inactive)
REMARK    1  A    between atoms: C_1  and  O_2
REMARK    2  A    between atoms: O_2  and  C_3
REMARK    3  A    between atoms: C_5  and  C_6
REMARK    4  A    between atoms: C_7  and  C_8
REMARK    5  A    between atoms: C_8  and  C_10
REMARK    6  A    between atoms: C_10  and  C_11
REMARK    7  A    between atoms: C_11  and  C_12
REMARK    8  A    between atoms: C_12  and  C_13
REMARK    9  A    between atoms: C_13  and  C_14
REMARK   10  A    between atoms: C_22  and  O_23
REMARK                            x       y       z     vdW  Elec       q    Type
REMARK                         _______ _______ _______ _____ _____    ______ ____
ROOT
ATOM      1  C   UNL     1      51.555  27.985 196.763  0.00  0.00    +0.000 C 
ATOM      2  C   UNL     1      52.831  27.617 197.058  0.00  0.00    +0.000 C 
ENDROOT
BRANCH   1   5
ATOM      3  C   UNL     1      49.959  28.489 200.151  0.00  0.00    +0.000 A 
ATOM      4  C   UNL     1      50.894  28.430 199.145  0.00  0.00    +0.000 A 
ATOM      5  C   UNL     1      50.513  28.069 197.867  0.00  0.00    +0.000 A 
ATOM      6  C   UNL     1      49.198  27.787 197.590  0.00  0.00    +0.000 A 
ATOM      7  C   UNL     1      48.248  27.871 198.583  0.00  0.00    +0.000 A 
ATOM      8  C   UNL     1      48.598  28.233 199.888  0.00  0.00    +0.000 A 
BRANCH   3  10
ATOM      9  C   UNL     1      51.744  28.548 201.730  0.00  0.00    +0.000 C 
ATOM     10  O   UNL     1      50.393  28.823 201.387  0.00  0.00    +0.000 OA
ENDBRANCH   3  10
BRANCH   8  11
ATOM     11  O   UNL     1      47.618  28.339 200.910  0.00  0.00    +0.000 OA
ATOM     12  H   UNL     1      47.748  28.986 201.661  0.00  0.00    +0.000 HD
ENDBRANCH   8  11
ENDBRANCH   1   5
BRANCH   2  13
ATOM     13  C   UNL     1      53.872  27.533 195.954  0.00  0.00    +0.000 C 
ATOM     14  O   UNL     1      54.611  26.503 195.853  0.00  0.00    +0.000 OA
BRANCH  13  15
ATOM     15  C   UNL     1      54.032  28.681 194.970  0.00  0.00    +0.000 C 
BRANCH  15  16
ATOM     16  C   UNL     1      55.496  29.081 194.893  0.00  0.00    +0.000 C 
BRANCH  16  17
ATOM     17  C   UNL     1      55.908  29.752 196.194  0.00  0.00    +0.000 C 
BRANCH  17  18
ATOM     18  C   UNL     1      55.126  31.044 196.367  0.00  0.00    +0.000 C 
BRANCH  18  19
ATOM     19  C   UNL     1      54.867  31.288 197.845  0.00  0.00    +0.000 A 
ATOM     20  C   UNL     1      55.849  31.832 198.655  0.00  0.00    +0.000 A 
ATOM     21  C   UNL     1      55.589  31.699 200.040  0.00  0.00    +0.000 A 
ATOM     22  C   UNL     1      54.404  31.429 200.557  0.00  0.00    +0.000 A 
ATOM     23  C   UNL     1      53.455  30.959 199.690  0.00  0.00    +0.000 A 
ATOM     24  C   UNL     1      53.685  30.936 198.336  0.00  0.00    +0.000 A 
ENDBRANCH  18  19
ENDBRANCH  17  18
ENDBRANCH  16  17
ENDBRANCH  15  16
ENDBRANCH  13  15
ENDBRANCH   2  13
TORSDOF 9
ENDMDL
MODEL 5
REMARK VINA RESULT:    -6.134     11.586     14.455
REMARK INTER + INTRA:         -12.103
REMARK INTER:                 -10.456
REMARK INTRA:                  -1.647
REMARK UNBOUND:                -2.921
REMARK  Name = 
REMARK  10 active torsions:
REMARK  status: ('A' for Active; 'I' for Inactive)
REMARK    1  A    between atoms: C_1  and  O_2
REMARK    2  A    between atoms: O_2  and  C_3
REMARK    3  A    between atoms: C_5  and  C_6
REMARK    4  A    between atoms: C_7  and  C_8
REMARK    5  A    between atoms: C_8  and  C_10
REMARK    6  A    between atoms: C_10  and  C_11
REMARK    7  A    between atoms: C_11  and  C_12
REMARK    8  A    between atoms: C_12  and  C_13
REMARK    9  A    between atoms: C_13  and  C_14
REMARK   10  A    between atoms: C_22  and  O_23
REMARK                            x       y       z     vdW  Elec       q    Type
REMARK                         _______ _______ _______ _____ _____    ______ ____
ROOT
ATOM      1  C   UNL     1      52.874  28.369 198.225  0.00  0.00    +0.000 C 
ATOM      2  C   UNL     1      52.925  28.306 196.867  0.00  0.00    +0.000 C 
ENDROOT
BRANCH   1   5
ATOM      3  C   UNL     1      49.162  28.085 198.873  0.00  0.00    +0.000 A 
ATOM      4  C   UNL     1      50.382  28.056 198.240  0.00  0.00    +0.000 A 
ATOM      5  C   UNL     1      51.530  28.383 198.935  0.00  0.00    +0.000 A 
ATOM      6  C   UNL     1      51.462  28.720 200.264  0.00  0.00    +0.000 A 
ATOM      7  C   UNL     1      50.249  28.725 200.917  0.00  0.00    +0.000 A 
ATOM      8  C   UNL     1      49.067  28.399 200.245  0.00  0.00    +0.000 A 
BRANCH   3  10
ATOM      9  C   UNL     1      48.004  26.506 197.513  0.00  0.00    +0.000 C 
ATOM     10  O   UNL     1      48.070  27.780 198.137  0.00  0.00    +0.000 OA
ENDBRANCH   3  10
BRANCH   8  11
ATOM     11  O   UNL     1      47.817  28.385 200.918  0.00  0.00    +0.000 OA
ATOM     12  H   UNL     1      46.973  28.553 200.409  0.00  0.00    +0.000 HD
ENDBRANCH   8  11
ENDBRANCH   1   5
BRANCH   2  13
ATOM     13  C   UNL     1      54.269  28.291 196.157  0.00  0.00    +0.000 C 
ATOM     14  O   UNL     1      54.523  27.394 195.293  0.00  0.00    +0.000 OA
BRANCH  13  15
ATOM     15  C   UNL     1      55.310  29.351 196.479  0.00  0.00    +0.000 C 
BRANCH  15  16
ATOM     16  C   UNL     1      54.752  30.726 196.153  0.00  0.00    +0.000 C 
BRANCH  16  17
ATOM     17  C   UNL     1      55.228  31.727 197.194  0.00  0.00    +0.000 C 
BRANCH  17  18
ATOM     18  C   UNL     1      54.037  32.231 197.993  0.00  0.00    +0.000 C 
BRANCH  18  19
ATOM     19  C   UNL     1      54.362  32.176 199.477  0.00  0.00    +0.000 A 
ATOM     20  C   UNL     1      54.366  30.970 200.157  0.00  0.00    +0.000 A 
ATOM     21  C   UNL     1      54.362  31.107 201.566  0.00  0.00    +0.000 A 
ATOM     22  C   UNL     1      54.685  32.212 202.212  0.00  0.00    +0.000 A 
ATOM     23  C   UNL     1      54.730  33.360 201.470  0.00  0.00    +0.000 A 
ATOM     24  C   UNL     1      54.612  33.321 200.102  0.00  0.00    +0.000 A 
ENDBRANCH  18  19
ENDBRANCH  17  18
ENDBRANCH  16  17
ENDBRANCH  15  16
ENDBRANCH  13  15
ENDBRANCH   2  13
TORSDOF 9
ENDMDL
MODEL 6
REMARK VINA RESULT:    -6.119     10.781     14.146
REMARK INTER + INTRA:         -12.081
REMARK INTER:                  -9.160
REMARK INTRA:                  -2.921
REMARK UNBOUND:                -2.921
REMARK  Name = 
REMARK  10 active torsions:
REMARK  status: ('A' for Active; 'I' for Inactive)
REMARK    1  A    between atoms: C_1  and  O_2
REMARK    2  A    between atoms: O_2  and  C_3
REMARK    3  A    between atoms: C_5  and  C_6
REMARK    4  A    between atoms: C_7  and  C_8
REMARK    5  A    between atoms: C_8  and  C_10
REMARK    6  A    between atoms: C_10  and  C_11
REMARK    7  A    between atoms: C_11  and  C_12
REMARK    8  A    between atoms: C_12  and  C_13
REMARK    9  A    between atoms: C_13  and  C_14
REMARK   10  A    between atoms: C_22  and  O_23
REMARK                            x       y       z     vdW  Elec       q    Type
REMARK                         _______ _______ _______ _____ _____    ______ ____
ROOT
ATOM      1  C   UNL     1      51.097  28.985 197.422  0.00  0.00    +0.000 C 
ATOM      2  C   UNL     1      50.381  27.835 197.550  0.00  0.00    +0.000 C 
ENDROOT
BRANCH   1   5
ATOM      3  C   UNL     1      54.443  30.103 196.067  0.00  0.00    +0.000 A 
ATOM      4  C   UNL     1      53.205  30.122 196.665  0.00  0.00    +0.000 A 
ATOM      5  C   UNL     1      52.474  28.955 196.779  0.00  0.00    +0.000 A 
ATOM      6  C   UNL     1      52.986  27.769 196.314  0.00  0.00    +0.000 A 
ATOM      7  C   UNL     1      54.237  27.732 195.739  0.00  0.00    +0.000 A 
ATOM      8  C   UNL     1      55.005  28.894 195.608  0.00  0.00    +0.000 A 
BRANCH   3  10
ATOM      9  C   UNL     1      55.554  31.915 197.147  0.00  0.00    +0.000 C 
ATOM     10  O   UNL     1      55.102  31.279 195.960  0.00  0.00    +0.000 OA
ENDBRANCH   3  10
BRANCH   8  11
ATOM     11  O   UNL     1      56.302  28.857 195.033  0.00  0.00    +0.000 OA
ATOM     12  H   UNL     1      56.762  29.709 194.781  0.00  0.00    +0.000 HD
ENDBRANCH   8  11
ENDBRANCH   1   5
BRANCH   2  13
ATOM     13  C   UNL     1      49.004  27.865 198.193  0.00  0.00    +0.000 C 
ATOM     14  O   UNL     1      48.195  26.901 198.011  0.00  0.00    +0.000 OA
BRANCH  13  15
ATOM     15  C   UNL     1      48.593  29.049 199.054  0.00  0.00    +0.000 C 
BRANCH  15  16
ATOM     16  C   UNL     1      48.731  28.679 200.522  0.00  0.00    +0.000 C 
BRANCH  16  17
ATOM     17  C   UNL     1      50.051  29.211 201.056  0.00  0.00    +0.000 C 
BRANCH  17  18
ATOM     18  C   UNL     1      51.053  28.073 201.154  0.00  0.00    +0.000 C 
BRANCH  18  19
ATOM     19  C   UNL     1      52.437  28.581 200.782  0.00  0.00    +0.000 A 
ATOM     20  C   UNL     1      52.770  29.915 200.949  0.00  0.00    +0.000 A 
ATOM     21  C   UNL     1      53.950  30.300 200.270  0.00  0.00    +0.000 A 
ATOM     22  C   UNL     1      54.864  29.459 199.821  0.00  0.00    +0.000 A 
ATOM     23  C   UNL     1      54.496  28.144 199.746  0.00  0.00    +0.000 A 
ATOM     24  C   UNL     1      53.302  27.713 200.269  0.00  0.00    +0.000 A 
ENDBRANCH  18  19
ENDBRANCH  17  18
ENDBRANCH  16  17
ENDBRANCH  15  16
ENDBRANCH  13  15
ENDBRANCH   2  13
TORSDOF 9
ENDMDL
MODEL 7
REMARK VINA RESULT:    -6.063     10.580     13.962
REMARK INTER + INTRA:         -11.997
REMARK INTER:                  -9.903
REMARK INTRA:                  -2.094
REMARK UNBOUND:                -2.921
REMARK  Name = 
REMARK  10 active torsions:
REMARK  status: ('A' for Active; 'I' for Inactive)
REMARK    1  A    between atoms: C_1  and  O_2
REMARK    2  A    between atoms: O_2  and  C_3
REMARK    3  A    between atoms: C_5  and  C_6
REMARK    4  A    between atoms: C_7  and  C_8
REMARK    5  A    between atoms: C_8  and  C_10
REMARK    6  A    between atoms: C_10  and  C_11
REMARK    7  A    between atoms: C_11  and  C_12
REMARK    8  A    between atoms: C_12  and  C_13
REMARK    9  A    between atoms: C_13  and  C_14
REMARK   10  A    between atoms: C_22  and  O_23
REMARK                            x       y       z     vdW  Elec       q    Type
REMARK                         _______ _______ _______ _____ _____    ______ ____
ROOT
ATOM      1  C   UNL     1      50.865  28.103 197.243  0.00  0.00    +0.000 C 
ATOM      2  C   UNL     1      49.868  28.712 197.940  0.00  0.00    +0.000 C 
ENDROOT
BRANCH   1   5
ATOM      3  C   UNL     1      54.089  29.082 195.533  0.00  0.00    +0.000 A 
ATOM      4  C   UNL     1      52.957  28.384 195.884  0.00  0.00    +0.000 A 
ATOM      5  C   UNL     1      52.103  28.888 196.845  0.00  0.00    +0.000 A 
ATOM      6  C   UNL     1      52.368  30.096 197.442  0.00  0.00    +0.000 A 
ATOM      7  C   UNL     1      53.483  30.819 197.078  0.00  0.00    +0.000 A 
ATOM      8  C   UNL     1      54.369  30.339 196.108  0.00  0.00    +0.000 A 
BRANCH   3  10
ATOM      9  C   UNL     1      55.789  27.495 195.009  0.00  0.00    +0.000 C 
ATOM     10  O   UNL     1      54.902  28.528 194.606  0.00  0.00    +0.000 OA
ENDBRANCH   3  10
BRANCH   8  11
ATOM     11  O   UNL     1      55.510  31.088 195.718  0.00  0.00    +0.000 OA
ATOM     12  H   UNL     1      55.427  31.796 195.017  0.00  0.00    +0.000 HD
ENDBRANCH   8  11
ENDBRANCH   1   5
BRANCH   2  13
ATOM     13  C   UNL     1      48.629  27.927 198.339  0.00  0.00    +0.000 C 
ATOM     14  O   UNL     1      48.313  26.872 197.703  0.00  0.00    +0.000 OA
BRANCH  13  15
ATOM     15  C   UNL     1      47.767  28.402 199.497  0.00  0.00    +0.000 C 
BRANCH  15  16
ATOM     16  C   UNL     1      48.635  29.138 200.505  0.00  0.00    +0.000 C 
BRANCH  16  17
ATOM     17  C   UNL     1      49.836  28.277 200.864  0.00  0.00    +0.000 C 
BRANCH  17  18
ATOM     18  C   UNL     1      50.842  29.112 201.640  0.00  0.00    +0.000 C 
BRANCH  18  19
ATOM     19  C   UNL     1      52.211  28.987 200.992  0.00  0.00    +0.000 A 
ATOM     20  C   UNL     1      52.602  27.806 200.383  0.00  0.00    +0.000 A 
ATOM     21  C   UNL     1      53.991  27.729 200.120  0.00  0.00    +0.000 A 
ATOM     22  C   UNL     1      54.807  28.766 200.096  0.00  0.00    +0.000 A 
ATOM     23  C   UNL     1      54.336  29.924 200.652  0.00  0.00    +0.000 A 
ATOM     24  C   UNL     1      53.027  30.034 201.053  0.00  0.00    +0.000 A 
ENDBRANCH  18  19
ENDBRANCH  17  18
ENDBRANCH  16  17
ENDBRANCH  15  16
ENDBRANCH  13  15
ENDBRANCH   2  13
TORSDOF 9
ENDMDL
MODEL 8
REMARK VINA RESULT:    -5.987     12.563     15.342
REMARK INTER + INTRA:         -11.884
REMARK INTER:                  -9.052
REMARK INTRA:                  -2.832
REMARK UNBOUND:                -2.921
REMARK  Name = 
REMARK  10 active torsions:
REMARK  status: ('A' for Active; 'I' for Inactive)
REMARK    1  A    between atoms: C_1  and  O_2
REMARK    2  A    between atoms: O_2  and  C_3
REMARK    3  A    between atoms: C_5  and  C_6
REMARK    4  A    between atoms: C_7  and  C_8
REMARK    5  A    between atoms: C_8  and  C_10
REMARK    6  A    between atoms: C_10  and  C_11
REMARK    7  A    between atoms: C_11  and  C_12
REMARK    8  A    between atoms: C_12  and  C_13
REMARK    9  A    between atoms: C_13  and  C_14
REMARK   10  A    between atoms: C_22  and  O_23
REMARK                            x       y       z     vdW  Elec       q    Type
REMARK                         _______ _______ _______ _____ _____    ______ ____
ROOT
ATOM      1  C   UNL     1      53.730  29.293 200.997  0.00  0.00    +0.000 C 
ATOM      2  C   UNL     1      53.270  30.218 201.882  0.00  0.00    +0.000 C 
ENDROOT
BRANCH   1   5
ATOM      3  C   UNL     1      50.752  28.868 198.711  0.00  0.00    +0.000 A 
ATOM      4  C   UNL     1      51.542  29.261 199.765  0.00  0.00    +0.000 A 
ATOM      5  C   UNL     1      52.867  28.873 199.819  0.00  0.00    +0.000 A 
ATOM      6  C   UNL     1      53.406  28.109 198.813  0.00  0.00    +0.000 A 
ATOM      7  C   UNL     1      52.632  27.733 197.737  0.00  0.00    +0.000 A 
ATOM      8  C   UNL     1      51.287  28.109 197.650  0.00  0.00    +0.000 A 
BRANCH   3  10
ATOM      9  C   UNL     1      48.611  28.768 199.755  0.00  0.00    +0.000 C 
ATOM     10  O   UNL     1      49.457  29.257 198.723  0.00  0.00    +0.000 OA
ENDBRANCH   3  10
BRANCH   8  11
ATOM     11  O   UNL     1      50.491  27.739 196.534  0.00  0.00    +0.000 OA
ATOM     12  H   UNL     1      49.898  28.415 196.097  0.00  0.00    +0.000 HD
ENDBRANCH   8  11
ENDBRANCH   1   5
BRANCH   2  13
ATOM     13  C   UNL     1      54.134  30.638 203.060  0.00  0.00    +0.000 C 
ATOM     14  O   UNL     1      53.927  30.139 204.211  0.00  0.00    +0.000 OA
BRANCH  13  15
ATOM     15  C   UNL     1      55.245  31.657 202.863  0.00  0.00    +0.000 C 
BRANCH  15  16
ATOM     16  C   UNL     1      54.694  32.872 202.134  0.00  0.00    +0.000 C 
BRANCH  16  17
ATOM     17  C   UNL     1      55.416  33.036 200.806  0.00  0.00    +0.000 C 
BRANCH  17  18
ATOM     18  C   UNL     1      54.406  32.982 199.671  0.00  0.00    +0.000 C 
BRANCH  18  19
ATOM     19  C   UNL     1      54.800  31.887 198.693  0.00  0.00    +0.000 A 
ATOM     20  C   UNL     1      55.933  31.120 198.907  0.00  0.00    +0.000 A 
ATOM     21  C   UNL     1      56.347  30.381 197.773  0.00  0.00    +0.000 A 
ATOM     22  C   UNL     1      55.584  30.124 196.727  0.00  0.00    +0.000 A 
ATOM     23  C   UNL     1      54.443  30.869 196.609  0.00  0.00    +0.000 A 
ATOM     24  C   UNL     1      54.041  31.711 197.617  0.00  0.00    +0.000 A 
ENDBRANCH  18  19
ENDBRANCH  17  18
ENDBRANCH  16  17
ENDBRANCH  15  16
ENDBRANCH  13  15
ENDBRANCH   2  13
TORSDOF 9
ENDMDL
MODEL 9
REMARK VINA RESULT:    -5.960     12.074     14.779
REMARK INTER + INTRA:         -11.842
REMARK INTER:                  -8.930
REMARK INTRA:                  -2.912
REMARK UNBOUND:                -2.921
REMARK  Name = 
REMARK  10 active torsions:
REMARK  status: ('A' for Active; 'I' for Inactive)
REMARK    1  A    between atoms: C_1  and  O_2
REMARK    2  A    between atoms: O_2  and  C_3
REMARK    3  A    between atoms: C_5  and  C_6
REMARK    4  A    between atoms: C_7  and  C_8
REMARK    5  A    between atoms: C_8  and  C_10
REMARK    6  A    between atoms: C_10  and  C_11
REMARK    7  A    between atoms: C_11  and  C_12
REMARK    8  A    between atoms: C_12  and  C_13
REMARK    9  A    between atoms: C_13  and  C_14
REMARK   10  A    between atoms: C_22  and  O_23
REMARK                            x       y       z     vdW  Elec       q    Type
REMARK                         _______ _______ _______ _____ _____    ______ ____
ROOT
ATOM      1  C   UNL     1      53.760  31.009 198.152  0.00  0.00    +0.000 C 
ATOM      2  C   UNL     1      55.045  30.759 197.783  0.00  0.00    +0.000 C 
ENDROOT
BRANCH   1   5
ATOM      3  C   UNL     1      50.402  29.280 198.034  0.00  0.00    +0.000 A 
ATOM      4  C   UNL     1      51.391  30.191 198.320  0.00  0.00    +0.000 A 
ATOM      5  C   UNL     1      52.665  30.010 197.816  0.00  0.00    +0.000 A 
ATOM      6  C   UNL     1      52.945  28.932 197.014  0.00  0.00    +0.000 A 
ATOM      7  C   UNL     1      51.955  28.028 196.697  0.00  0.00    +0.000 A 
ATOM      8  C   UNL     1      50.655  28.180 197.188  0.00  0.00    +0.000 A 
BRANCH   3  10
ATOM      9  C   UNL     1      48.859  28.853 199.801  0.00  0.00    +0.000 C 
ATOM     10  O   UNL     1      49.181  29.494 198.575  0.00  0.00    +0.000 OA
ENDBRANCH   3  10
BRANCH   8  11
ATOM     11  O   UNL     1      49.627  27.261 196.849  0.00  0.00    +0.000 OA
ATOM     12  H   UNL     1      49.862  26.369 196.464  0.00  0.00    +0.000 HD
ENDBRANCH   8  11
ENDBRANCH   1   5
BRANCH   2  13
ATOM     13  C   UNL     1      56.140  31.758 198.119  0.00  0.00    +0.000 C 
ATOM     14  O   UNL     1      56.907  32.194 197.203  0.00  0.00    +0.000 OA
BRANCH  13  15
ATOM     15  C   UNL     1      56.320  32.237 199.551  0.00  0.00    +0.000 C 
BRANCH  15  16
ATOM     16  C   UNL     1      57.356  31.371 200.248  0.00  0.00    +0.000 C 
BRANCH  16  17
ATOM     17  C   UNL     1      56.684  30.560 201.345  0.00  0.00    +0.000 C 
BRANCH  17  18
ATOM     18  C   UNL     1      56.328  29.182 200.809  0.00  0.00    +0.000 C 
BRANCH  18  19
ATOM     19  C   UNL     1      54.826  28.971 200.911  0.00  0.00    +0.000 A 
ATOM     20  C   UNL     1      54.021  29.901 201.548  0.00  0.00    +0.000 A 
ATOM     21  C   UNL     1      52.722  29.426 201.848  0.00  0.00    +0.000 A 
ATOM     22  C   UNL     1      52.165  28.367 201.291  0.00  0.00    +0.000 A 
ATOM     23  C   UNL     1      53.004  27.522 200.617  0.00  0.00    +0.000 A 
ATOM     24  C   UNL     1      54.317  27.857 200.397  0.00  0.00    +0.000 A 
ENDBRANCH  18  19
ENDBRANCH  17  18
ENDBRANCH  16  17
ENDBRANCH  15  16
ENDBRANCH  13  15
ENDBRANCH   2  13
TORSDOF 9
ENDMDL
