MODEL 1
REMARK VINA RESULT:    -6.818      0.000      0.000
REMARK INTER + INTRA:          11.280
REMARK INTER:                  -8.040
REMARK INTRA:                  19.320
REMARK UNBOUND:                19.294
REMARK  Name = 
REMARK  5 active torsions:
REMARK  status: ('A' for Active; 'I' for Inactive)
REMARK    1  A    between atoms: C_1  and  O_2
REMARK    2  A    between atoms: O_2  and  C_3
REMARK    3  A    between atoms: C_6  and  O_7
REMARK    4  A    between atoms: O_7  and  C_8
REMARK    5  A    between atoms: C_9  and  C_10
REMARK                            x       y       z     vdW  Elec       q    Type
REMARK                         _______ _______ _______ _____ _____    ______ ____
ROOT
ATOM      1  C   UNL     1      44.463  22.894 191.791  0.00  0.00    +0.000 A 
ATOM      2  C   UNL     1      45.401  22.545 192.827  0.00  0.00    +0.000 A 
ATOM      3  C   UNL     1      44.951  21.838 193.998  0.00  0.00    +0.000 A 
ATOM      4  O   UNL     1      45.778  21.531 194.912  0.00  0.00    +0.000 OA
ATOM      5  C   UNL     1      43.485  21.460 194.140  0.00  0.00    +0.000 A 
ATOM      6  C   UNL     1      42.841  21.673 195.348  0.00  0.00    +0.000 A 
ATOM      7  C   UNL     1      41.588  21.023 195.452  0.00  0.00    +0.000 A 
ATOM      8  C   UNL     1      40.897  20.562 194.426  0.00  0.00    +0.000 A 
ATOM      9  C   UNL     1      41.572  20.438 193.243  0.00  0.00    +0.000 A 
ATOM     10  C   UNL     1      42.847  20.932 193.103  0.00  0.00    +0.000 A 
ATOM     11  O   UNL     1      44.885  23.554 190.697  0.00  0.00    +0.000 OA
ENDROOT
BRANCH   1  16
ATOM     12  C   UNL     1      41.232  21.089 191.338  0.00  0.00    +0.000 A 
ATOM     13  C   UNL     1      40.349  21.803 192.132  0.00  0.00    +0.000 A 
ATOM     14  C   UNL     1      40.882  23.013 192.637  0.00  0.00    +0.000 A 
ATOM     15  C   UNL     1      42.170  23.302 192.685  0.00  0.00    +0.000 A 
ATOM     16  C   UNL     1      42.997  22.516 191.933  0.00  0.00    +0.000 A 
ATOM     17  C   UNL     1      42.525  21.391 191.303  0.00  0.00    +0.000 A 
BRANCH  12  19
ATOM     18  C   UNL     1      39.461  19.507 190.695  0.00  0.00    +0.000 C 
ATOM     19  O   UNL     1      40.714  20.123 190.435  0.00  0.00    +0.000 OA
ENDBRANCH  12  19
BRANCH  15  20
ATOM     20  O   UNL     1      42.667  24.370 193.479  0.00  0.00    +0.000 OA
ATOM     21  C   UNL     1      41.792  25.080 194.340  0.00  0.00    +0.000 C 
ENDBRANCH  15  20
ENDBRANCH   1  16
TORSDOF 3
ENDMDL
MODEL 2
REMARK VINA RESULT:    -6.752     11.106     13.562
REMARK INTER + INTRA:          11.357
REMARK INTER:                  -7.957
REMARK INTRA:                  19.314
REMARK UNBOUND:                19.294
REMARK  Name = 
REMARK  5 active torsions:
REMARK  status: ('A' for Active; 'I' for Inactive)
REMARK    1  A    between atoms: C_1  and  O_2
REMARK    2  A    between atoms: O_2  and  C_3
REMARK    3  A    between atoms: C_6  and  O_7
REMARK    4  A    between atoms: O_7  and  C_8
REMARK    5  A    between atoms: C_9  and  C_10
REMARK                            x       y       z     vdW  Elec       q    Type
REMARK                         _______ _______ _______ _____ _____    ______ ____
ROOT
ATOM      1  C   UNL     1      53.598  27.953 200.067  0.00  0.00    +0.000 A 
ATOM      2  C   UNL     1      54.155  29.174 200.590  0.00  0.00    +0.000 A 
ATOM      3  C   UNL     1      53.677  30.446 200.113  0.00  0.00    +0.000 A 
ATOM      4  O   UNL     1      54.169  31.523 200.575  0.00  0.00    +0.000 OA
ATOM      5  C   UNL     1      52.585  30.500 199.057  0.00  0.00    +0.000 A 
ATOM      6  C   UNL     1      52.715  31.369 197.987  0.00  0.00    +0.000 A 
ATOM      7  C   UNL     1      51.524  31.543 197.242  0.00  0.00    +0.000 A 
ATOM      8  C   UNL     1      50.487  30.727 197.287  0.00  0.00    +0.000 A 
ATOM      9  C   UNL     1      50.451  29.846 198.332  0.00  0.00    +0.000 A 
ATOM     10  C   UNL     1      51.524  29.712 199.180  0.00  0.00    +0.000 A 
ATOM     11  O   UNL     1      54.045  26.764 200.513  0.00  0.00    +0.000 OA
ENDROOT
BRANCH   1  16
ATOM     12  C   UNL     1      50.222  27.874 198.485  0.00  0.00    +0.000 A 
ATOM     13  C   UNL     1      50.491  28.069 197.140  0.00  0.00    +0.000 A 
ATOM     14  C   UNL     1      51.868  28.018 196.818  0.00  0.00    +0.000 A 
ATOM     15  C   UNL     1      52.848  28.141 197.694  0.00  0.00    +0.000 A 
ATOM     16  C   UNL     1      52.506  28.007 199.011  0.00  0.00    +0.000 A 
ATOM     17  C   UNL     1      51.190  27.920 199.394  0.00  0.00    +0.000 A 
BRANCH  12  19
ATOM     18  C   UNL     1      48.063  26.835 197.931  0.00  0.00    +0.000 C 
ATOM     19  O   UNL     1      48.918  27.468 198.872  0.00  0.00    +0.000 OA
ENDBRANCH  12  19
BRANCH  15  20
ATOM     20  O   UNL     1      54.185  28.401 197.291  0.00  0.00    +0.000 OA
ATOM     21  C   UNL     1      54.453  28.842 195.969  0.00  0.00    +0.000 C 
ENDBRANCH  15  20
ENDBRANCH   1  16
TORSDOF 3
ENDMDL
MODEL 3
REMARK VINA RESULT:    -6.751     12.181     14.910
REMARK INTER + INTRA:          11.359
REMARK INTER:                  -7.959
REMARK INTRA:                  19.319
REMARK UNBOUND:                19.294
REMARK  Name = 
REMARK  5 active torsions:
REMARK  status: ('A' for Active; 'I' for Inactive)
REMARK    1  A    between atoms: C_1  and  O_2
REMARK    2  A    between atoms: O_2  and  C_3
REMARK    3  A    between atoms: C_6  and  O_7
REMARK    4  A    between atoms: O_7  and  C_8
REMARK    5  A    between atoms: C_9  and  C_10
REMARK                            x       y       z     vdW  Elec       q    Type
REMARK                         _______ _______ _______ _____ _____    ______ ____
ROOT
ATOM      1  C   UNL     1      50.767  30.880 197.376  0.00  0.00    +0.000 A 
ATOM      2  C   UNL     1      49.896  29.893 197.960  0.00  0.00    +0.000 A 
ATOM      3  C   UNL     1      50.429  28.904 198.861  0.00  0.00    +0.000 A 
ATOM      4  O   UNL     1      49.661  28.034 199.376  0.00  0.00    +0.000 OA
ATOM      5  C   UNL     1      51.913  28.902 199.194  0.00  0.00    +0.000 A 
ATOM      6  C   UNL     1      52.609  27.705 199.192  0.00  0.00    +0.000 A 
ATOM      7  C   UNL     1      53.887  27.784 199.794  0.00  0.00    +0.000 A 
ATOM      8  C   UNL     1      54.542  28.910 200.016  0.00  0.00    +0.000 A 
ATOM      9  C   UNL     1      53.812  30.064 199.937  0.00  0.00    +0.000 A 
ATOM     10  C   UNL     1      52.516  30.049 199.482  0.00  0.00    +0.000 A 
ATOM     11  O   UNL     1      50.268  31.804 196.534  0.00  0.00    +0.000 OA
ENDROOT
BRANCH   1  16
ATOM     12  C   UNL     1      54.033  31.817 198.913  0.00  0.00    +0.000 A 
ATOM     13  C   UNL     1      54.929  30.936 198.329  0.00  0.00    +0.000 A 
ATOM     14  C   UNL     1      54.381  30.181 197.266  0.00  0.00    +0.000 A 
ATOM     15  C   UNL     1      53.087  30.021 197.050  0.00  0.00    +0.000 A 
ATOM     16  C   UNL     1      52.251  30.877 197.709  0.00  0.00    +0.000 A 
ATOM     17  C   UNL     1      52.730  31.737 198.667  0.00  0.00    +0.000 A 
BRANCH  12  19
ATOM     18  C   UNL     1      55.840  32.852 200.221  0.00  0.00    +0.000 C 
ATOM     19  O   UNL     1      54.537  32.914 199.660  0.00  0.00    +0.000 OA
ENDBRANCH  12  19
BRANCH  15  20
ATOM     20  O   UNL     1      52.593  29.012 196.180  0.00  0.00    +0.000 OA
ATOM     21  C   UNL     1      53.482  28.049 195.635  0.00  0.00    +0.000 C 
ENDBRANCH  15  20
ENDBRANCH   1  16
TORSDOF 3
ENDMDL
MODEL 4
REMARK VINA RESULT:    -6.666     12.881     15.702
REMARK INTER + INTRA:          11.459
REMARK INTER:                  -7.833
REMARK INTRA:                  19.292
REMARK UNBOUND:                19.294
REMARK  Name = 
REMARK  5 active torsions:
REMARK  status: ('A' for Active; 'I' for Inactive)
REMARK    1  A    between atoms: C_1  and  O_2
REMARK    2  A    between atoms: O_2  and  C_3
REMARK    3  A    between atoms: C_6  and  O_7
REMARK    4  A    between atoms: O_7  and  C_8
REMARK    5  A    between atoms: C_9  and  C_10
REMARK                            x       y       z     vdW  Elec       q    Type
REMARK                         _______ _______ _______ _____ _____    ______ ____
ROOT
ATOM      1  C   UNL     1      52.223  28.723 199.288  0.00  0.00    +0.000 A 
ATOM      2  C   UNL     1      52.669  27.675 198.407  0.00  0.00    +0.000 A 
ATOM      3  C   UNL     1      53.694  27.942 197.432  0.00  0.00    +0.000 A 
ATOM      4  O   UNL     1      54.087  27.018 196.654  0.00  0.00    +0.000 OA
ATOM      5  C   UNL     1      54.306  29.330 197.333  0.00  0.00    +0.000 A 
ATOM      6  C   UNL     1      54.486  29.908 196.087  0.00  0.00    +0.000 A 
ATOM      7  C   UNL     1      55.319  31.052 196.100  0.00  0.00    +0.000 A 
ATOM      8  C   UNL     1      55.617  31.748 197.183  0.00  0.00    +0.000 A 
ATOM      9  C   UNL     1      55.352  31.150 198.383  0.00  0.00    +0.000 A 
ATOM     10  C   UNL     1      54.657  29.966 198.444  0.00  0.00    +0.000 A 
ATOM     11  O   UNL     1      51.264  28.474 200.200  0.00  0.00    +0.000 OA
ENDROOT
BRANCH   1  16
ATOM     12  C   UNL     1      54.295  31.723 200.072  0.00  0.00    +0.000 A 
ATOM     13  C   UNL     1      53.953  32.621 199.075  0.00  0.00    +0.000 A 
ATOM     14  C   UNL     1      52.856  32.208 198.284  0.00  0.00    +0.000 A 
ATOM     15  C   UNL     1      52.406  30.969 198.215  0.00  0.00    +0.000 A 
ATOM     16  C   UNL     1      52.835  30.112 199.189  0.00  0.00    +0.000 A 
ATOM     17  C   UNL     1      53.810  30.486 200.081  0.00  0.00    +0.000 A 
BRANCH  12  19
ATOM     18  C   UNL     1      54.810  33.476 201.719  0.00  0.00    +0.000 C 
ATOM     19  O   UNL     1      55.053  32.184 201.181  0.00  0.00    +0.000 OA
ENDBRANCH  12  19
BRANCH  15  20
ATOM     20  O   UNL     1      51.525  30.549 197.183  0.00  0.00    +0.000 OA
ATOM     21  C   UNL     1      50.178  30.996 197.175  0.00  0.00    +0.000 C 
ENDBRANCH  15  20
ENDBRANCH   1  16
TORSDOF 3
ENDMDL
MODEL 5
REMARK VINA RESULT:    -6.654     11.659     14.013
REMARK INTER + INTRA:          11.472
REMARK INTER:                  -7.840
REMARK INTRA:                  19.312
REMARK UNBOUND:                19.294
REMARK  Name = 
REMARK  5 active torsions:
REMARK  status: ('A' for Active; 'I' for Inactive)
REMARK    1  A    between atoms: C_1  and  O_2
REMARK    2  A    between atoms: O_2  and  C_3
REMARK    3  A    between atoms: C_6  and  O_7
REMARK    4  A    between atoms: O_7  and  C_8
REMARK    5  A    between atoms: C_9  and  C_10
REMARK                            x       y       z     vdW  Elec       q    Type
REMARK                         _______ _______ _______ _____ _____    ______ ____
ROOT
ATOM      1  C   UNL     1      54.586  29.384 199.844  0.00  0.00    +0.000 A 
ATOM      2  C   UNL     1      53.770  29.136 201.005  0.00  0.00    +0.000 A 
ATOM      3  C   UNL     1      52.391  28.751 200.847  0.00  0.00    +0.000 A 
ATOM      4  O   UNL     1      51.672  28.532 201.870  0.00  0.00    +0.000 OA
ATOM      5  C   UNL     1      51.797  28.607 199.455  0.00  0.00    +0.000 A 
ATOM      6  C   UNL     1      50.551  29.147 199.187  0.00  0.00    +0.000 A 
ATOM      7  C   UNL     1      49.982  28.704 197.969  0.00  0.00    +0.000 A 
ATOM      8  C   UNL     1      50.662  28.136 196.989  0.00  0.00    +0.000 A 
ATOM      9  C   UNL     1      51.914  27.683 197.300  0.00  0.00    +0.000 A 
ATOM     10  C   UNL     1      52.485  27.966 198.518  0.00  0.00    +0.000 A 
ATOM     11  O   UNL     1      55.875  29.743 199.992  0.00  0.00    +0.000 OA
ENDROOT
BRANCH   1  16
ATOM     12  C   UNL     1      53.765  27.965 196.495  0.00  0.00    +0.000 A 
ATOM     13  C   UNL     1      52.966  28.939 195.918  0.00  0.00    +0.000 A 
ATOM     14  C   UNL     1      52.914  30.146 196.654  0.00  0.00    +0.000 A 
ATOM     15  C   UNL     1      53.263  30.267 197.922  0.00  0.00    +0.000 A 
ATOM     16  C   UNL     1      53.992  29.240 198.452  0.00  0.00    +0.000 A 
ATOM     17  C   UNL     1      54.197  28.080 197.746  0.00  0.00    +0.000 A 
BRANCH  12  19
ATOM     18  C   UNL     1      55.530  27.014 195.069  0.00  0.00    +0.000 C 
ATOM     19  O   UNL     1      54.253  26.908 195.681  0.00  0.00    +0.000 OA
ENDBRANCH  12  19
BRANCH  15  20
ATOM     20  O   UNL     1      52.897  31.403 198.693  0.00  0.00    +0.000 OA
ATOM     21  C   UNL     1      53.667  32.592 198.613  0.00  0.00    +0.000 C 
ENDBRANCH  15  20
ENDBRANCH   1  16
TORSDOF 3
ENDMDL
MODEL 6
REMARK VINA RESULT:    -6.640      1.608      3.911
REMARK INTER + INTRA:          11.489
REMARK INTER:                  -7.763
REMARK INTRA:                  19.252
REMARK UNBOUND:                19.294
REMARK  Name = 
REMARK  5 active torsions:
REMARK  status: ('A' for Active; 'I' for Inactive)
REMARK    1  A    between atoms: C_1  and  O_2
REMARK    2  A    between atoms: O_2  and  C_3
REMARK    3  A    between atoms: C_6  and  O_7
REMARK    4  A    between atoms: O_7  and  C_8
REMARK    5  A    between atoms: C_9  and  C_10
REMARK                            x       y       z     vdW  Elec       q    Type
REMARK                         _______ _______ _______ _____ _____    ______ ____
ROOT
ATOM      1  C   UNL     1      40.532  22.054 191.822  0.00  0.00    +0.000 A 
ATOM      2  C   UNL     1      41.333  22.014 190.626  0.00  0.00    +0.000 A 
ATOM      3  C   UNL     1      42.770  22.019 190.720  0.00  0.00    +0.000 A 
ATOM      4  O   UNL     1      43.476  21.984 189.665  0.00  0.00    +0.000 OA
ATOM      5  C   UNL     1      43.441  22.069 192.084  0.00  0.00    +0.000 A 
ATOM      6  C   UNL     1      44.505  22.931 192.288  0.00  0.00    +0.000 A 
ATOM      7  C   UNL     1      45.225  22.682 193.480  0.00  0.00    +0.000 A 
ATOM      8  C   UNL     1      44.768  21.970 194.495  0.00  0.00    +0.000 A 
ATOM      9  C   UNL     1      43.673  21.190 194.248  0.00  0.00    +0.000 A 
ATOM     10  C   UNL     1      42.995  21.284 193.056  0.00  0.00    +0.000 A 
ATOM     11  O   UNL     1      39.189  22.049 191.733  0.00  0.00    +0.000 OA
ENDROOT
BRANCH   1  16
ATOM     12  C   UNL     1      41.844  20.979 195.143  0.00  0.00    +0.000 A 
ATOM     13  C   UNL     1      42.382  22.142 195.669  0.00  0.00    +0.000 A 
ATOM     14  C   UNL     1      42.081  23.303 194.920  0.00  0.00    +0.000 A 
ATOM     15  C   UNL     1      41.657  23.299 193.669  0.00  0.00    +0.000 A 
ATOM     16  C   UNL     1      41.203  22.104 193.185  0.00  0.00    +0.000 A 
ATOM     17  C   UNL     1      41.343  20.947 193.913  0.00  0.00    +0.000 A 
BRANCH  12  19
ATOM     18  C   UNL     1      41.645  20.019 197.399  0.00  0.00    +0.000 C 
ATOM     19  O   UNL     1      41.689  19.849 195.990  0.00  0.00    +0.000 OA
ENDBRANCH  12  19
BRANCH  15  20
ATOM     20  O   UNL     1      41.675  24.473 192.869  0.00  0.00    +0.000 OA
ATOM     21  C   UNL     1      41.294  25.719 193.430  0.00  0.00    +0.000 C 
ENDBRANCH  15  20
ENDBRANCH   1  16
TORSDOF 3
ENDMDL
MODEL 7
REMARK VINA RESULT:    -6.614      1.739      4.153
REMARK INTER + INTRA:          11.520
REMARK INTER:                  -7.774
REMARK INTRA:                  19.294
REMARK UNBOUND:                19.294
REMARK  Name = 
REMARK  5 active torsions:
REMARK  status: ('A' for Active; 'I' for Inactive)
REMARK    1  A    between atoms: C_1  and  O_2
REMARK    2  A    between atoms: O_2  and  C_3
REMARK    3  A    between atoms: C_6  and  O_7
REMARK    4  A    between atoms: O_7  and  C_8
REMARK    5  A    between atoms: C_9  and  C_10
REMARK                            x       y       z     vdW  Elec       q    Type
REMARK                         _______ _______ _______ _____ _____    ______ ____
ROOT
ATOM      1  C   UNL     1      40.553  22.401 191.404  0.00  0.00    +0.000 A 
ATOM      2  C   UNL     1      40.441  20.967 191.338  0.00  0.00    +0.000 A 
ATOM      3  C   UNL     1      41.086  20.148 192.331  0.00  0.00    +0.000 A 
ATOM      4  O   UNL     1      40.988  18.883 192.273  0.00  0.00    +0.000 OA
ATOM      5  C   UNL     1      41.886  20.798 193.449  0.00  0.00    +0.000 A 
ATOM      6  C   UNL     1      43.129  20.286 193.784  0.00  0.00    +0.000 A 
ATOM      7  C   UNL     1      43.639  20.775 195.010  0.00  0.00    +0.000 A 
ATOM      8  C   UNL     1      43.204  21.863 195.621  0.00  0.00    +0.000 A 
ATOM      9  C   UNL     1      42.002  22.359 195.199  0.00  0.00    +0.000 A 
ATOM     10  C   UNL     1      41.379  21.846 194.086  0.00  0.00    +0.000 A 
ATOM     11  O   UNL     1      39.950  23.167 190.476  0.00  0.00    +0.000 OA
ENDROOT
BRANCH   1  16
ATOM     12  C   UNL     1      41.363  24.201 194.568  0.00  0.00    +0.000 A 
ATOM     13  C   UNL     1      42.747  24.264 194.558  0.00  0.00    +0.000 A 
ATOM     14  C   UNL     1      43.331  23.848 193.339  0.00  0.00    +0.000 A 
ATOM     15  C   UNL     1      42.713  23.131 192.418  0.00  0.00    +0.000 A 
ATOM     16  C   UNL     1      41.353  23.051 192.522  0.00  0.00    +0.000 A 
ATOM     17  C   UNL     1      40.697  23.550 193.621  0.00  0.00    +0.000 A 
BRANCH  12  19
ATOM     18  C   UNL     1      39.525  25.744 195.110  0.00  0.00    +0.000 C 
ATOM     19  O   UNL     1      40.648  24.976 195.519  0.00  0.00    +0.000 OA
ENDBRANCH  12  19
BRANCH  15  20
ATOM     20  O   UNL     1      43.424  22.477 191.376  0.00  0.00    +0.000 OA
ATOM     21  C   UNL     1      44.683  22.978 190.955  0.00  0.00    +0.000 C 
ENDBRANCH  15  20
ENDBRANCH   1  16
TORSDOF 3
ENDMDL
MODEL 8
REMARK VINA RESULT:    -6.607     12.258     14.744
REMARK INTER + INTRA:          11.528
REMARK INTER:                  -7.643
REMARK INTRA:                  19.171
REMARK UNBOUND:                19.294
REMARK  Name = 
REMARK  5 active torsions:
REMARK  status: ('A' for Active; 'I' for Inactive)
REMARK    1  A    between atoms: C_1  and  O_2
REMARK    2  A    between atoms: O_2  and  C_3
REMARK    3  A    between atoms: C_6  and  O_7
REMARK    4  A    between atoms: O_7  and  C_8
REMARK    5  A    between atoms: C_9  and  C_10
REMARK                            x       y       z     vdW  Elec       q    Type
REMARK                         _______ _______ _______ _____ _____    ______ ____
ROOT
ATOM      1  C   UNL     1      54.593  31.153 198.447  0.00  0.00    +0.000 A 
ATOM      2  C   UNL     1      53.711  32.216 198.041  0.00  0.00    +0.000 A 
ATOM      3  C   UNL     1      52.289  31.992 197.988  0.00  0.00    +0.000 A 
ATOM      4  O   UNL     1      51.512  32.930 197.630  0.00  0.00    +0.000 OA
ATOM      5  C   UNL     1      51.720  30.632 198.361  0.00  0.00    +0.000 A 
ATOM      6  C   UNL     1      50.748  30.058 197.559  0.00  0.00    +0.000 A 
ATOM      7  C   UNL     1      50.094  28.952 198.153  0.00  0.00    +0.000 A 
ATOM      8  C   UNL     1      50.560  28.275 199.187  0.00  0.00    +0.000 A 
ATOM      9  C   UNL     1      51.566  28.865 199.899  0.00  0.00    +0.000 A 
ATOM     10  C   UNL     1      52.167  30.017 199.450  0.00  0.00    +0.000 A 
ATOM     11  O   UNL     1      55.922  31.362 198.496  0.00  0.00    +0.000 OA
ENDROOT
BRANCH   1  16
ATOM     12  C   UNL     1      53.414  28.271 200.498  0.00  0.00    +0.000 A 
ATOM     13  C   UNL     1      53.026  27.337 199.551  0.00  0.00    +0.000 A 
ATOM     14  C   UNL     1      53.386  27.681 198.227  0.00  0.00    +0.000 A 
ATOM     15  C   UNL     1      53.721  28.897 197.833  0.00  0.00    +0.000 A 
ATOM     16  C   UNL     1      54.024  29.793 198.820  0.00  0.00    +0.000 A 
ATOM     17  C   UNL     1      53.824  29.483 200.143  0.00  0.00    +0.000 A 
BRANCH  12  19
ATOM     18  C   UNL     1      54.010  28.775 202.831  0.00  0.00    +0.000 C 
ATOM     19  O   UNL     1      53.517  27.868 201.856  0.00  0.00    +0.000 OA
ENDBRANCH  12  19
BRANCH  15  20
ATOM     20  O   UNL     1      53.760  29.254 196.459  0.00  0.00    +0.000 OA
ATOM     21  C   UNL     1      53.271  28.353 195.478  0.00  0.00    +0.000 C 
ENDBRANCH  15  20
ENDBRANCH   1  16
TORSDOF 3
ENDMDL
MODEL 9
REMARK VINA RESULT:    -6.585      1.616      3.387
REMARK INTER + INTRA:          11.554
REMARK INTER:                  -7.685
REMARK INTRA:                  19.240
REMARK UNBOUND:                19.294
REMARK  Name = 
REMARK  5 active torsions:
REMARK  status: ('A' for Active; 'I' for Inactive)
REMARK    1  A    between atoms: C_1  and  O_2
REMARK    2  A    between atoms: O_2  and  C_3
REMARK    3  A    between atoms: C_6  and  O_7
REMARK    4  A    between atoms: O_7  and  C_8
REMARK    5  A    between atoms: C_9  and  C_10
REMARK                            x       y       z     vdW  Elec       q    Type
REMARK                         _______ _______ _______ _____ _____    ______ ____
ROOT
ATOM      1  C   UNL     1      43.233  19.937 194.691  0.00  0.00    +0.000 A 
ATOM      2  C   UNL     1      42.719  20.378 195.962  0.00  0.00    +0.000 A 
ATOM      3  C   UNL     1      42.072  21.660 196.072  0.00  0.00    +0.000 A 
ATOM      4  O   UNL     1      41.619  22.049 197.193  0.00  0.00    +0.000 OA
ATOM      5  C   UNL     1      41.932  22.548 194.845  0.00  0.00    +0.000 A 
ATOM      6  C   UNL     1      42.224  23.898 194.945  0.00  0.00    +0.000 A 
ATOM      7  C   UNL     1      41.781  24.663 193.840  0.00  0.00    +0.000 A 
ATOM      8  C   UNL     1      41.456  24.160 192.663  0.00  0.00    +0.000 A 
ATOM      9  C   UNL     1      41.248  22.809 192.616  0.00  0.00    +0.000 A 
ATOM     10  C   UNL     1      41.533  22.012 193.698  0.00  0.00    +0.000 A 
ATOM     11  O   UNL     1      43.837  18.739 194.589  0.00  0.00    +0.000 OA
ENDROOT
BRANCH   1  16
ATOM     12  C   UNL     1      41.972  21.306 191.460  0.00  0.00    +0.000 A 
ATOM     13  C   UNL     1      42.811  22.381 191.215  0.00  0.00    +0.000 A 
ATOM     14  C   UNL     1      43.915  22.458 192.096  0.00  0.00    +0.000 A 
ATOM     15  C   UNL     1      43.994  21.831 193.256  0.00  0.00    +0.000 A 
ATOM     16  C   UNL     1      43.093  20.825 193.465  0.00  0.00    +0.000 A 
ATOM     17  C   UNL     1      42.063  20.603 192.583  0.00  0.00    +0.000 A 
BRANCH  12  19
ATOM     18  C   UNL     1      40.577  19.543 190.460  0.00  0.00    +0.000 C 
ATOM     19  O   UNL     1      41.109  20.860 190.424  0.00  0.00    +0.000 OA
ENDBRANCH  12  19
BRANCH  15  20
ATOM     20  O   UNL     1      44.962  22.185 194.233  0.00  0.00    +0.000 OA
ATOM     21  C   UNL     1      46.338  21.931 193.993  0.00  0.00    +0.000 C 
ENDBRANCH  15  20
ENDBRANCH   1  16
TORSDOF 3
ENDMDL
