MODEL 1
REMARK VINA RESULT:    -6.996      0.000      0.000
REMARK INTER + INTRA:          -9.492
REMARK INTER:                  -8.731
REMARK INTRA:                  -0.760
REMARK UNBOUND:                -0.655
REMARK  Name = 
REMARK  6 active torsions:
REMARK  status: ('A' for Active; 'I' for Inactive)
REMARK    1  A    between atoms: C_1  and  O_2
REMARK    2  A    between atoms: O_2  and  C_3
REMARK    3  A    between atoms: C_6  and  C_7
REMARK    4  A    between atoms: C_7  and  C_9
REMARK    5  A    between atoms: C_10  and  C_11
REMARK    6  A    between atoms: C_17  and  O_18
REMARK                            x       y       z     vdW  Elec       q    Type
REMARK                         _______ _______ _______ _____ _____    ______ ____
ROOT
ATOM      1  C   UNL     1      45.376  22.963 193.748  0.00  0.00    +0.000 A 
ATOM      2  C   UNL     1      45.067  22.756 192.424  0.00  0.00    +0.000 A 
ATOM      3  C   UNL     1      43.786  22.994 191.966  0.00  0.00    +0.000 A 
ATOM      4  C   UNL     1      42.817  23.455 192.826  0.00  0.00    +0.000 A 
ATOM      5  C   UNL     1      43.122  23.695 194.147  0.00  0.00    +0.000 A 
ATOM      6  C   UNL     1      44.409  23.465 194.645  0.00  0.00    +0.000 A 
ENDROOT
BRANCH   1   8
ATOM      7  C   UNL     1      47.077  21.340 194.235  0.00  0.00    +0.000 C 
ATOM      8  O   UNL     1      46.639  22.688 194.145  0.00  0.00    +0.000 OA
ENDBRANCH   1   8
BRANCH   4   9
ATOM      9  C   UNL     1      41.407  23.703 192.315  0.00  0.00    +0.000 C 
ATOM     10  O   UNL     1      40.825  24.805 192.564  0.00  0.00    +0.000 OA
BRANCH   9  11
ATOM     11  C   UNL     1      40.694  22.633 191.506  0.00  0.00    +0.000 C 
ATOM     12  C   UNL     1      40.621  21.358 191.977  0.00  0.00    +0.000 C 
BRANCH  12  13
ATOM     13  C   UNL     1      39.907  20.288 191.167  0.00  0.00    +0.000 A 
ATOM     14  C   UNL     1      38.526  20.239 191.254  0.00  0.00    +0.000 A 
ATOM     15  C   UNL     1      37.958  19.065 190.705  0.00  0.00    +0.000 A 
ATOM     16  C   UNL     1      38.579  18.252 189.870  0.00  0.00    +0.000 A 
ATOM     17  C   UNL     1      39.936  18.396 189.778  0.00  0.00    +0.000 A 
ATOM     18  C   UNL     1      40.579  19.442 190.395  0.00  0.00    +0.000 A 
ENDBRANCH  12  13
ENDBRANCH   9  11
ENDBRANCH   4   9
BRANCH   5  19
ATOM     19  O   UNL     1      42.113  24.183 195.020  0.00  0.00    +0.000 OA
ATOM     20  H   UNL     1      41.245  24.510 194.647  0.00  0.00    +0.000 HD
ENDBRANCH   5  19
TORSDOF 5
ENDMDL
MODEL 2
REMARK VINA RESULT:    -6.898     12.095     16.826
REMARK INTER + INTRA:          -9.368
REMARK INTER:                  -8.599
REMARK INTRA:                  -0.769
REMARK UNBOUND:                -0.655
REMARK  Name = 
REMARK  6 active torsions:
REMARK  status: ('A' for Active; 'I' for Inactive)
REMARK    1  A    between atoms: C_1  and  O_2
REMARK    2  A    between atoms: O_2  and  C_3
REMARK    3  A    between atoms: C_6  and  C_7
REMARK    4  A    between atoms: C_7  and  C_9
REMARK    5  A    between atoms: C_10  and  C_11
REMARK    6  A    between atoms: C_17  and  O_18
REMARK                            x       y       z     vdW  Elec       q    Type
REMARK                         _______ _______ _______ _____ _____    ______ ____
ROOT
ATOM      1  C   UNL     1      49.854  28.571 198.030  0.00  0.00    +0.000 A 
ATOM      2  C   UNL     1      50.024  29.932 197.934  0.00  0.00    +0.000 A 
ATOM      3  C   UNL     1      51.220  30.450 197.476  0.00  0.00    +0.000 A 
ATOM      4  C   UNL     1      52.239  29.610 197.097  0.00  0.00    +0.000 A 
ATOM      5  C   UNL     1      52.070  28.244 197.161  0.00  0.00    +0.000 A 
ATOM      6  C   UNL     1      50.873  27.686 197.620  0.00  0.00    +0.000 A 
ENDROOT
BRANCH   1   8
ATOM      7  C   UNL     1      48.256  28.482 199.821  0.00  0.00    +0.000 C 
ATOM      8  O   UNL     1      48.673  28.123 198.511  0.00  0.00    +0.000 OA
ENDBRANCH   1   8
BRANCH   4   9
ATOM      9  C   UNL     1      53.556  30.189 196.605  0.00  0.00    +0.000 C 
ATOM     10  O   UNL     1      54.084  29.750 195.536  0.00  0.00    +0.000 OA
BRANCH   9  11
ATOM     11  C   UNL     1      54.240  31.295 197.392  0.00  0.00    +0.000 C 
ATOM     12  C   UNL     1      54.547  31.107 198.704  0.00  0.00    +0.000 C 
BRANCH  12  13
ATOM     13  C   UNL     1      55.231  32.213 199.490  0.00  0.00    +0.000 A 
ATOM     14  C   UNL     1      56.616  32.213 199.516  0.00  0.00    +0.000 A 
ATOM     15  C   UNL     1      57.172  33.091 200.478  0.00  0.00    +0.000 A 
ATOM     16  C   UNL     1      56.517  34.083 201.054  0.00  0.00    +0.000 A 
ATOM     17  C   UNL     1      55.155  34.063 200.934  0.00  0.00    +0.000 A 
ATOM     18  C   UNL     1      54.530  33.152 200.117  0.00  0.00    +0.000 A 
ENDBRANCH  12  13
ENDBRANCH   9  11
ENDBRANCH   4   9
BRANCH   5  19
ATOM     19  O   UNL     1      53.129  27.389 196.754  0.00  0.00    +0.000 OA
ATOM     20  H   UNL     1      53.097  26.414 196.974  0.00  0.00    +0.000 HD
ENDBRANCH   5  19
TORSDOF 5
ENDMDL
MODEL 3
REMARK VINA RESULT:    -6.804      2.688      7.251
REMARK INTER + INTRA:          -9.249
REMARK INTER:                  -8.539
REMARK INTRA:                  -0.710
REMARK UNBOUND:                -0.655
REMARK  Name = 
REMARK  6 active torsions:
REMARK  status: ('A' for Active; 'I' for Inactive)
REMARK    1  A    between atoms: C_1  and  O_2
REMARK    2  A    between atoms: O_2  and  C_3
REMARK    3  A    between atoms: C_6  and  C_7
REMARK    4  A    between atoms: C_7  and  C_9
REMARK    5  A    between atoms: C_10  and  C_11
REMARK    6  A    between atoms: C_17  and  O_18
REMARK                            x       y       z     vdW  Elec       q    Type
REMARK                         _______ _______ _______ _____ _____    ______ ____
ROOT
ATOM      1  C   UNL     1      38.645  17.976 189.932  0.00  0.00    +0.000 A 
ATOM      2  C   UNL     1      39.991  18.214 189.785  0.00  0.00    +0.000 A 
ATOM      3  C   UNL     1      40.557  19.352 190.329  0.00  0.00    +0.000 A 
ATOM      4  C   UNL     1      39.782  20.242 191.033  0.00  0.00    +0.000 A 
ATOM      5  C   UNL     1      38.438  19.999 191.212  0.00  0.00    +0.000 A 
ATOM      6  C   UNL     1      37.833  18.857 190.676  0.00  0.00    +0.000 A 
ENDROOT
BRANCH   1   8
ATOM      7  C   UNL     1      36.954  16.934 188.582  0.00  0.00    +0.000 C 
ATOM      8  O   UNL     1      38.143  16.860 189.356  0.00  0.00    +0.000 OA
ENDBRANCH   1   8
BRANCH   4   9
ATOM      9  C   UNL     1      40.411  21.497 191.616  0.00  0.00    +0.000 C 
ATOM     10  O   UNL     1      39.921  22.638 191.347  0.00  0.00    +0.000 OA
BRANCH   9  11
ATOM     11  C   UNL     1      41.625  21.386 192.524  0.00  0.00    +0.000 C 
ATOM     12  C   UNL     1      42.791  21.996 192.179  0.00  0.00    +0.000 C 
BRANCH  12  13
ATOM     13  C   UNL     1      44.004  21.885 193.088  0.00  0.00    +0.000 A 
ATOM     14  C   UNL     1      45.078  22.718 192.820  0.00  0.00    +0.000 A 
ATOM     15  C   UNL     1      46.260  22.372 193.519  0.00  0.00    +0.000 A 
ATOM     16  C   UNL     1      46.299  21.593 194.584  0.00  0.00    +0.000 A 
ATOM     17  C   UNL     1      45.181  20.846 194.833  0.00  0.00    +0.000 A 
ATOM     18  C   UNL     1      44.029  21.034 194.107  0.00  0.00    +0.000 A 
ENDBRANCH  12  13
ENDBRANCH   9  11
ENDBRANCH   4   9
BRANCH   5  19
ATOM     19  O   UNL     1      37.653  20.923 191.952  0.00  0.00    +0.000 OA
ATOM     20  H   UNL     1      37.815  21.043 192.932  0.00  0.00    +0.000 HD
ENDBRANCH   5  19
TORSDOF 5
ENDMDL
MODEL 4
REMARK VINA RESULT:    -6.793     14.180     17.583
REMARK INTER + INTRA:          -9.235
REMARK INTER:                  -8.537
REMARK INTRA:                  -0.698
REMARK UNBOUND:                -0.655
REMARK  Name = 
REMARK  6 active torsions:
REMARK  status: ('A' for Active; 'I' for Inactive)
REMARK    1  A    between atoms: C_1  and  O_2
REMARK    2  A    between atoms: O_2  and  C_3
REMARK    3  A    between atoms: C_6  and  C_7
REMARK    4  A    between atoms: C_7  and  C_9
REMARK    5  A    between atoms: C_10  and  C_11
REMARK    6  A    between atoms: C_17  and  O_18
REMARK                            x       y       z     vdW  Elec       q    Type
REMARK                         _______ _______ _______ _____ _____    ______ ____
ROOT
ATOM      1  C   UNL     1      56.692  34.259 201.837  0.00  0.00    +0.000 A 
ATOM      2  C   UNL     1      55.326  34.185 201.701  0.00  0.00    +0.000 A 
ATOM      3  C   UNL     1      54.770  33.383 200.723  0.00  0.00    +0.000 A 
ATOM      4  C   UNL     1      55.577  32.642 199.894  0.00  0.00    +0.000 A 
ATOM      5  C   UNL     1      56.946  32.685 200.041  0.00  0.00    +0.000 A 
ATOM      6  C   UNL     1      57.542  33.486 201.020  0.00  0.00    +0.000 A 
ENDROOT
BRANCH   1   8
ATOM      7  C   UNL     1      58.473  35.652 202.649  0.00  0.00    +0.000 C 
ATOM      8  O   UNL     1      57.180  35.082 202.794  0.00  0.00    +0.000 OA
ENDBRANCH   1   8
BRANCH   4   9
ATOM      9  C   UNL     1      54.956  31.771 198.814  0.00  0.00    +0.000 C 
ATOM     10  O   UNL     1      55.392  31.829 197.622  0.00  0.00    +0.000 OA
BRANCH   9  11
ATOM     11  C   UNL     1      53.815  30.829 199.160  0.00  0.00    +0.000 C 
ATOM     12  C   UNL     1      52.675  30.838 198.417  0.00  0.00    +0.000 C 
BRANCH  12  13
ATOM     13  C   UNL     1      51.534  29.896 198.764  0.00  0.00    +0.000 A 
ATOM     14  C   UNL     1      50.464  29.842 197.886  0.00  0.00    +0.000 A 
ATOM     15  C   UNL     1      49.332  29.166 198.402  0.00  0.00    +0.000 A 
ATOM     16  C   UNL     1      49.356  28.349 199.439  0.00  0.00    +0.000 A 
ATOM     17  C   UNL     1      50.471  28.403 200.230  0.00  0.00    +0.000 A 
ATOM     18  C   UNL     1      51.566  29.145 199.858  0.00  0.00    +0.000 A 
ENDBRANCH  12  13
ENDBRANCH   9  11
ENDBRANCH   4   9
BRANCH   5  19
ATOM     19  O   UNL     1      57.765  31.903 199.183  0.00  0.00    +0.000 OA
ATOM     20  H   UNL     1      58.748  31.838 199.353  0.00  0.00    +0.000 HD
ENDBRANCH   5  19
TORSDOF 5
ENDMDL
MODEL 5
REMARK VINA RESULT:    -6.788      2.476      6.822
REMARK INTER + INTRA:          -9.229
REMARK INTER:                  -8.392
REMARK INTRA:                  -0.836
REMARK UNBOUND:                -0.655
REMARK  Name = 
REMARK  6 active torsions:
REMARK  status: ('A' for Active; 'I' for Inactive)
REMARK    1  A    between atoms: C_1  and  O_2
REMARK    2  A    between atoms: O_2  and  C_3
REMARK    3  A    between atoms: C_6  and  C_7
REMARK    4  A    between atoms: C_7  and  C_9
REMARK    5  A    between atoms: C_10  and  C_11
REMARK    6  A    between atoms: C_17  and  O_18
REMARK                            x       y       z     vdW  Elec       q    Type
REMARK                         _______ _______ _______ _____ _____    ______ ____
ROOT
ATOM      1  C   UNL     1      37.583  19.805 191.693  0.00  0.00    +0.000 A 
ATOM      2  C   UNL     1      38.014  19.804 192.998  0.00  0.00    +0.000 A 
ATOM      3  C   UNL     1      38.777  20.853 193.475  0.00  0.00    +0.000 A 
ATOM      4  C   UNL     1      39.094  21.909 192.655  0.00  0.00    +0.000 A 
ATOM      5  C   UNL     1      38.642  21.934 191.354  0.00  0.00    +0.000 A 
ATOM      6  C   UNL     1      37.868  20.890 190.838  0.00  0.00    +0.000 A 
ENDROOT
BRANCH   1   8
ATOM      7  C   UNL     1      37.192  18.096 190.051  0.00  0.00    +0.000 C 
ATOM      8  O   UNL     1      36.863  18.740 191.273  0.00  0.00    +0.000 OA
ENDBRANCH   1   8
BRANCH   4   9
ATOM      9  C   UNL     1      39.944  23.052 193.186  0.00  0.00    +0.000 C 
ATOM     10  O   UNL     1      39.458  24.224 193.261  0.00  0.00    +0.000 OA
BRANCH   9  11
ATOM     11  C   UNL     1      41.375  22.792 193.629  0.00  0.00    +0.000 C 
ATOM     12  C   UNL     1      42.244  22.166 192.790  0.00  0.00    +0.000 C 
BRANCH  12  13
ATOM     13  C   UNL     1      43.674  21.907 193.233  0.00  0.00    +0.000 A 
ATOM     14  C   UNL     1      43.902  20.802 194.037  0.00  0.00    +0.000 A 
ATOM     15  C   UNL     1      45.187  20.780 194.631  0.00  0.00    +0.000 A 
ATOM     16  C   UNL     1      46.215  21.499 194.219  0.00  0.00    +0.000 A 
ATOM     17  C   UNL     1      45.932  22.536 193.372  0.00  0.00    +0.000 A 
ATOM     18  C   UNL     1      44.670  22.701 192.854  0.00  0.00    +0.000 A 
ENDBRANCH  12  13
ENDBRANCH   9  11
ENDBRANCH   4   9
BRANCH   5  19
ATOM     19  O   UNL     1      38.969  23.039 190.523  0.00  0.00    +0.000 OA
ATOM     20  H   UNL     1      39.186  23.925 190.932  0.00  0.00    +0.000 HD
ENDBRANCH   5  19
TORSDOF 5
ENDMDL
MODEL 6
REMARK VINA RESULT:    -6.718     11.923     15.469
REMARK INTER + INTRA:          -9.141
REMARK INTER:                  -8.466
REMARK INTRA:                  -0.675
REMARK UNBOUND:                -0.655
REMARK  Name = 
REMARK  6 active torsions:
REMARK  status: ('A' for Active; 'I' for Inactive)
REMARK    1  A    between atoms: C_1  and  O_2
REMARK    2  A    between atoms: O_2  and  C_3
REMARK    3  A    between atoms: C_6  and  C_7
REMARK    4  A    between atoms: C_7  and  C_9
REMARK    5  A    between atoms: C_10  and  C_11
REMARK    6  A    between atoms: C_17  and  O_18
REMARK                            x       y       z     vdW  Elec       q    Type
REMARK                         _______ _______ _______ _____ _____    ______ ____
ROOT
ATOM      1  C   UNL     1      56.884  31.232 199.357  0.00  0.00    +0.000 A 
ATOM      2  C   UNL     1      56.354  29.969 199.472  0.00  0.00    +0.000 A 
ATOM      3  C   UNL     1      55.299  29.585 198.668  0.00  0.00    +0.000 A 
ATOM      4  C   UNL     1      54.783  30.455 197.738  0.00  0.00    +0.000 A 
ATOM      5  C   UNL     1      55.325  31.713 197.593  0.00  0.00    +0.000 A 
ATOM      6  C   UNL     1      56.394  32.135 198.390  0.00  0.00    +0.000 A 
ENDROOT
BRANCH   1   8
ATOM      7  C   UNL     1      57.618  32.104 201.471  0.00  0.00    +0.000 C 
ATOM      8  O   UNL     1      57.898  31.562 200.188  0.00  0.00    +0.000 OA
ENDBRANCH   1   8
BRANCH   4   9
ATOM      9  C   UNL     1      53.614  30.027 196.866  0.00  0.00    +0.000 C 
ATOM     10  O   UNL     1      53.790  29.814 195.626  0.00  0.00    +0.000 OA
BRANCH   9  11
ATOM     11  C   UNL     1      52.234  29.853 197.479  0.00  0.00    +0.000 C 
ATOM     12  C   UNL     1      51.915  28.697 198.121  0.00  0.00    +0.000 C 
BRANCH  12  13
ATOM     13  C   UNL     1      50.535  28.523 198.734  0.00  0.00    +0.000 A 
ATOM     14  C   UNL     1      49.520  28.082 197.902  0.00  0.00    +0.000 A 
ATOM     15  C   UNL     1      48.225  28.208 198.460  0.00  0.00    +0.000 A 
ATOM     16  C   UNL     1      47.977  28.374 199.746  0.00  0.00    +0.000 A 
ATOM     17  C   UNL     1      49.037  28.744 200.528  0.00  0.00    +0.000 A 
ATOM     18  C   UNL     1      50.313  28.772 200.020  0.00  0.00    +0.000 A 
ENDBRANCH  12  13
ENDBRANCH   9  11
ENDBRANCH   4   9
BRANCH   5  19
ATOM     19  O   UNL     1      54.789  32.597 196.618  0.00  0.00    +0.000 OA
ATOM     20  H   UNL     1      54.983  33.576 196.671  0.00  0.00    +0.000 HD
ENDBRANCH   5  19
TORSDOF 5
ENDMDL
MODEL 7
REMARK VINA RESULT:    -6.667     13.043     17.670
REMARK INTER + INTRA:          -9.076
REMARK INTER:                  -8.386
REMARK INTRA:                  -0.690
REMARK UNBOUND:                -0.655
REMARK  Name = 
REMARK  6 active torsions:
REMARK  status: ('A' for Active; 'I' for Inactive)
REMARK    1  A    between atoms: C_1  and  O_2
REMARK    2  A    between atoms: O_2  and  C_3
REMARK    3  A    between atoms: C_6  and  C_7
REMARK    4  A    between atoms: C_7  and  C_9
REMARK    5  A    between atoms: C_10  and  C_11
REMARK    6  A    between atoms: C_17  and  O_18
REMARK                            x       y       z     vdW  Elec       q    Type
REMARK                         _______ _______ _______ _____ _____    ______ ____
ROOT
ATOM      1  C   UNL     1      49.846  28.703 199.072  0.00  0.00    +0.000 A 
ATOM      2  C   UNL     1      50.987  28.558 199.824  0.00  0.00    +0.000 A 
ATOM      3  C   UNL     1      52.101  29.328 199.549  0.00  0.00    +0.000 A 
ATOM      4  C   UNL     1      52.069  30.254 198.534  0.00  0.00    +0.000 A 
ATOM      5  C   UNL     1      50.921  30.429 197.793  0.00  0.00    +0.000 A 
ATOM      6  C   UNL     1      49.776  29.667 198.045  0.00  0.00    +0.000 A 
ENDROOT
BRANCH   1   8
ATOM      7  C   UNL     1      48.054  27.288 198.327  0.00  0.00    +0.000 C 
ATOM      8  O   UNL     1      48.797  27.904 199.370  0.00  0.00    +0.000 OA
ENDBRANCH   1   8
BRANCH   4   9
ATOM      9  C   UNL     1      53.303  31.088 198.231  0.00  0.00    +0.000 C 
ATOM     10  O   UNL     1      53.856  31.014 197.090  0.00  0.00    +0.000 OA
BRANCH   9  11
ATOM     11  C   UNL     1      53.874  32.013 199.294  0.00  0.00    +0.000 C 
ATOM     12  C   UNL     1      55.220  32.187 199.393  0.00  0.00    +0.000 C 
BRANCH  12  13
ATOM     13  C   UNL     1      55.790  33.112 200.455  0.00  0.00    +0.000 A 
ATOM     14  C   UNL     1      57.169  33.162 200.583  0.00  0.00    +0.000 A 
ATOM     15  C   UNL     1      57.613  33.819 201.755  0.00  0.00    +0.000 A 
ATOM     16  C   UNL     1      56.869  34.626 202.489  0.00  0.00    +0.000 A 
ATOM     17  C   UNL     1      55.520  34.579 202.268  0.00  0.00    +0.000 A 
ATOM     18  C   UNL     1      55.000  33.853 201.223  0.00  0.00    +0.000 A 
ENDBRANCH  12  13
ENDBRANCH   9  11
ENDBRANCH   4   9
BRANCH   5  19
ATOM     19  O   UNL     1      50.901  31.400 196.756  0.00  0.00    +0.000 OA
ATOM     20  H   UNL     1      51.738  31.609 196.251  0.00  0.00    +0.000 HD
ENDBRANCH   5  19
TORSDOF 5
ENDMDL
MODEL 8
REMARK VINA RESULT:    -6.618     15.058     16.817
REMARK INTER + INTRA:          -9.014
REMARK INTER:                  -8.359
REMARK INTRA:                  -0.655
REMARK UNBOUND:                -0.655
REMARK  Name = 
REMARK  6 active torsions:
REMARK  status: ('A' for Active; 'I' for Inactive)
REMARK    1  A    between atoms: C_1  and  O_2
REMARK    2  A    between atoms: O_2  and  C_3
REMARK    3  A    between atoms: C_6  and  C_7
REMARK    4  A    between atoms: C_7  and  C_9
REMARK    5  A    between atoms: C_10  and  C_11
REMARK    6  A    between atoms: C_17  and  O_18
REMARK                            x       y       z     vdW  Elec       q    Type
REMARK                         _______ _______ _______ _____ _____    ______ ____
ROOT
ATOM      1  C   UNL     1      50.209  31.890 183.103  0.00  0.00    +0.000 A 
ATOM      2  C   UNL     1      49.360  32.500 182.211  0.00  0.00    +0.000 A 
ATOM      3  C   UNL     1      48.808  33.730 182.510  0.00  0.00    +0.000 A 
ATOM      4  C   UNL     1      49.118  34.360 183.692  0.00  0.00    +0.000 A 
ATOM      5  C   UNL     1      49.991  33.772 184.580  0.00  0.00    +0.000 A 
ATOM      6  C   UNL     1      50.568  32.527 184.309  0.00  0.00    +0.000 A 
ENDROOT
BRANCH   1   8
ATOM      7  C   UNL     1      50.669  29.612 183.711  0.00  0.00    +0.000 C 
ATOM      8  O   UNL     1      50.698  30.674 182.768  0.00  0.00    +0.000 OA
ENDBRANCH   1   8
BRANCH   4   9
ATOM      9  C   UNL     1      48.496  35.708 184.018  0.00  0.00    +0.000 C 
ATOM     10  O   UNL     1      49.237  36.729 184.170  0.00  0.00    +0.000 OA
BRANCH   9  11
ATOM     11  C   UNL     1      46.988  35.834 184.161  0.00  0.00    +0.000 C 
ATOM     12  C   UNL     1      46.453  36.906 184.806  0.00  0.00    +0.000 C 
BRANCH  12  13
ATOM     13  C   UNL     1      44.945  37.032 184.948  0.00  0.00    +0.000 A 
ATOM     14  C   UNL     1      44.395  36.731 186.183  0.00  0.00    +0.000 A 
ATOM     15  C   UNL     1      42.985  36.602 186.167  0.00  0.00    +0.000 A 
ATOM     16  C   UNL     1      42.202  37.060 185.208  0.00  0.00    +0.000 A 
ATOM     17  C   UNL     1      42.815  37.404 184.034  0.00  0.00    +0.000 A 
ATOM     18  C   UNL     1      44.186  37.427 183.933  0.00  0.00    +0.000 A 
ENDBRANCH  12  13
ENDBRANCH   9  11
ENDBRANCH   4   9
BRANCH   5  19
ATOM     19  O   UNL     1      50.311  34.441 185.792  0.00  0.00    +0.000 OA
ATOM     20  H   UNL     1      50.718  35.353 185.767  0.00  0.00    +0.000 HD
ENDBRANCH   5  19
TORSDOF 5
ENDMDL
MODEL 9
REMARK VINA RESULT:    -6.581      1.620      2.035
REMARK INTER + INTRA:          -8.967
REMARK INTER:                  -8.273
REMARK INTRA:                  -0.694
REMARK UNBOUND:                -0.655
REMARK  Name = 
REMARK  6 active torsions:
REMARK  status: ('A' for Active; 'I' for Inactive)
REMARK    1  A    between atoms: C_1  and  O_2
REMARK    2  A    between atoms: O_2  and  C_3
REMARK    3  A    between atoms: C_6  and  C_7
REMARK    4  A    between atoms: C_7  and  C_9
REMARK    5  A    between atoms: C_10  and  C_11
REMARK    6  A    between atoms: C_17  and  O_18
REMARK                            x       y       z     vdW  Elec       q    Type
REMARK                         _______ _______ _______ _____ _____    ______ ____
ROOT
ATOM      1  C   UNL     1      45.477  21.755 194.120  0.00  0.00    +0.000 A 
ATOM      2  C   UNL     1      44.430  20.942 194.483  0.00  0.00    +0.000 A 
ATOM      3  C   UNL     1      43.241  20.990 193.781  0.00  0.00    +0.000 A 
ATOM      4  C   UNL     1      43.104  21.836 192.707  0.00  0.00    +0.000 A 
ATOM      5  C   UNL     1      44.156  22.633 192.315  0.00  0.00    +0.000 A 
ATOM      6  C   UNL     1      45.374  22.610 193.003  0.00  0.00    +0.000 A 
ENDROOT
BRANCH   1   8
ATOM      7  C   UNL     1      47.634  22.650 194.682  0.00  0.00    +0.000 C 
ATOM      8  O   UNL     1      46.607  21.685 194.860  0.00  0.00    +0.000 OA
ENDBRANCH   1   8
BRANCH   4   9
ATOM      9  C   UNL     1      41.788  21.889 191.948  0.00  0.00    +0.000 C 
ATOM     10  O   UNL     1      41.152  22.985 191.854  0.00  0.00    +0.000 OA
BRANCH   9  11
ATOM     11  C   UNL     1      41.233  20.631 191.300  0.00  0.00    +0.000 C 
ATOM     12  C   UNL     1      39.893  20.393 191.312  0.00  0.00    +0.000 C 
BRANCH  12  13
ATOM     13  C   UNL     1      39.340  19.135 190.664  0.00  0.00    +0.000 A 
ATOM     14  C   UNL     1      37.971  19.074 190.458  0.00  0.00    +0.000 A 
ATOM     15  C   UNL     1      37.500  17.784 190.113  0.00  0.00    +0.000 A 
ATOM     16  C   UNL     1      38.262  16.803 189.666  0.00  0.00    +0.000 A 
ATOM     17  C   UNL     1      39.611  16.954 189.839  0.00  0.00    +0.000 A 
ATOM     18  C   UNL     1      40.137  18.138 190.296  0.00  0.00    +0.000 A 
ENDBRANCH  12  13
ENDBRANCH   9  11
ENDBRANCH   4   9
BRANCH   5  19
ATOM     19  O   UNL     1      44.003  23.493 191.195  0.00  0.00    +0.000 OA
ATOM     20  H   UNL     1      43.880  24.476 191.332  0.00  0.00    +0.000 HD
ENDBRANCH   5  19
TORSDOF 5
ENDMDL
