MODEL 1
REMARK VINA RESULT:    -7.474      0.000      0.000
REMARK INTER + INTRA:         -10.082
REMARK INTER:                  -9.622
REMARK INTRA:                  -0.460
REMARK UNBOUND:                -0.423
REMARK  Name = 
REMARK  7 active torsions:
REMARK  status: ('A' for Active; 'I' for Inactive)
REMARK    1  A    between atoms: C_1  and  O_2
REMARK    2  A    between atoms: O_2  and  C_3
REMARK    3  A    between atoms: C_5  and  C_6
REMARK    4  A    between atoms: C_7  and  C_8
REMARK    5  A    between atoms: C_8  and  C_10
REMARK    6  A    between atoms: C_13  and  O_14
REMARK    7  A    between atoms: C_19  and  O_20
REMARK                            x       y       z     vdW  Elec       q    Type
REMARK                         _______ _______ _______ _____ _____    ______ ____
ROOT
ATOM      1  C   UNL     1      42.478  22.785 195.004  0.00  0.00    +0.000 C 
ATOM      2  C   UNL     1      43.049  21.861 194.185  0.00  0.00    +0.000 C 
ENDROOT
BRANCH   1   5
ATOM      3  C   UNL     1      40.011  24.469 192.688  0.00  0.00    +0.000 A 
ATOM      4  C   UNL     1      40.901  23.559 193.208  0.00  0.00    +0.000 A 
ATOM      5  C   UNL     1      41.478  23.783 194.443  0.00  0.00    +0.000 A 
ATOM      6  C   UNL     1      41.152  24.905 195.166  0.00  0.00    +0.000 A 
ATOM      7  C   UNL     1      40.239  25.809 194.669  0.00  0.00    +0.000 A 
ATOM      8  C   UNL     1      39.636  25.613 193.422  0.00  0.00    +0.000 A 
BRANCH   3  10
ATOM      9  C   UNL     1      39.797  22.942 190.899  0.00  0.00    +0.000 C 
ATOM     10  O   UNL     1      39.498  24.210 191.464  0.00  0.00    +0.000 OA
ENDBRANCH   3  10
BRANCH   8  11
ATOM     11  O   UNL     1      38.681  26.533 192.914  0.00  0.00    +0.000 OA
ATOM     12  H   UNL     1      38.776  27.509 193.108  0.00  0.00    +0.000 HD
ENDBRANCH   8  11
ENDBRANCH   1   5
BRANCH   2  13
ATOM     13  C   UNL     1      44.049  20.863 194.746  0.00  0.00    +0.000 C 
ATOM     14  O   UNL     1      43.637  19.825 195.351  0.00  0.00    +0.000 OA
BRANCH  13  15
ATOM     15  C   UNL     1      45.540  21.109 194.586  0.00  0.00    +0.000 A 
ATOM     16  C   UNL     1      45.967  22.410 194.735  0.00  0.00    +0.000 A 
ATOM     17  C   UNL     1      47.310  22.754 194.552  0.00  0.00    +0.000 A 
ATOM     18  C   UNL     1      48.211  21.718 194.228  0.00  0.00    +0.000 A 
ATOM     19  C   UNL     1      47.767  20.429 194.052  0.00  0.00    +0.000 A 
ATOM     20  C   UNL     1      46.434  20.124 194.240  0.00  0.00    +0.000 A 
BRANCH  18  21
ATOM     21  O   UNL     1      49.532  21.952 194.056  0.00  0.00    +0.000 OA
ATOM     22  H   UNL     1      49.846  22.860 193.778  0.00  0.00    +0.000 HD
ENDBRANCH  18  21
ENDBRANCH  13  15
ENDBRANCH   2  13
TORSDOF 6
ENDMDL
MODEL 2
REMARK VINA RESULT:    -7.411      9.233     13.351
REMARK INTER + INTRA:         -10.001
REMARK INTER:                  -9.703
REMARK INTRA:                  -0.298
REMARK UNBOUND:                -0.423
REMARK  Name = 
REMARK  7 active torsions:
REMARK  status: ('A' for Active; 'I' for Inactive)
REMARK    1  A    between atoms: C_1  and  O_2
REMARK    2  A    between atoms: O_2  and  C_3
REMARK    3  A    between atoms: C_5  and  C_6
REMARK    4  A    between atoms: C_7  and  C_8
REMARK    5  A    between atoms: C_8  and  C_10
REMARK    6  A    between atoms: C_13  and  O_14
REMARK    7  A    between atoms: C_19  and  O_20
REMARK                            x       y       z     vdW  Elec       q    Type
REMARK                         _______ _______ _______ _____ _____    ______ ____
ROOT
ATOM      1  C   UNL     1      52.532  27.998 198.053  0.00  0.00    +0.000 C 
ATOM      2  C   UNL     1      52.361  28.881 199.074  0.00  0.00    +0.000 C 
ENDROOT
BRANCH   1   5
ATOM      3  C   UNL     1      55.530  29.387 196.217  0.00  0.00    +0.000 A 
ATOM      4  C   UNL     1      54.630  29.098 197.215  0.00  0.00    +0.000 A 
ATOM      5  C   UNL     1      53.536  28.297 196.951  0.00  0.00    +0.000 A 
ATOM      6  C   UNL     1      53.351  27.770 195.696  0.00  0.00    +0.000 A 
ATOM      7  C   UNL     1      54.262  28.028 194.695  0.00  0.00    +0.000 A 
ATOM      8  C   UNL     1      55.380  28.835 194.928  0.00  0.00    +0.000 A 
BRANCH   3  10
ATOM      9  C   UNL     1      56.246  31.467 197.076  0.00  0.00    +0.000 C 
ATOM     10  O   UNL     1      56.567  30.198 196.527  0.00  0.00    +0.000 OA
ENDBRANCH   3  10
BRANCH   8  11
ATOM     11  O   UNL     1      56.331  29.089 193.904  0.00  0.00    +0.000 OA
ATOM     12  H   UNL     1      57.306  29.117 194.124  0.00  0.00    +0.000 HD
ENDBRANCH   8  11
ENDBRANCH   1   5
BRANCH   2  13
ATOM     13  C   UNL     1      51.357  28.582 200.175  0.00  0.00    +0.000 C 
ATOM     14  O   UNL     1      51.762  28.357 201.359  0.00  0.00    +0.000 OA
BRANCH  13  15
ATOM     15  C   UNL     1      49.870  28.549 199.861  0.00  0.00    +0.000 A 
ATOM     16  C   UNL     1      49.032  29.096 200.807  0.00  0.00    +0.000 A 
ATOM     17  C   UNL     1      47.643  29.066 200.642  0.00  0.00    +0.000 A 
ATOM     18  C   UNL     1      47.137  28.472 199.468  0.00  0.00    +0.000 A 
ATOM     19  C   UNL     1      47.983  27.902 198.546  0.00  0.00    +0.000 A 
ATOM     20  C   UNL     1      49.349  27.949 198.741  0.00  0.00    +0.000 A 
BRANCH  18  21
ATOM     21  O   UNL     1      45.809  28.419 199.213  0.00  0.00    +0.000 OA
ATOM     22  H   UNL     1      45.373  27.540 199.018  0.00  0.00    +0.000 HD
ENDBRANCH  18  21
ENDBRANCH  13  15
ENDBRANCH   2  13
TORSDOF 6
ENDMDL
MODEL 3
REMARK VINA RESULT:    -7.180      0.948      2.366
REMARK INTER + INTRA:          -9.702
REMARK INTER:                  -9.707
REMARK INTRA:                   0.005
REMARK UNBOUND:                -0.423
REMARK  Name = 
REMARK  7 active torsions:
REMARK  status: ('A' for Active; 'I' for Inactive)
REMARK    1  A    between atoms: C_1  and  O_2
REMARK    2  A    between atoms: O_2  and  C_3
REMARK    3  A    between atoms: C_5  and  C_6
REMARK    4  A    between atoms: C_7  and  C_8
REMARK    5  A    between atoms: C_8  and  C_10
REMARK    6  A    between atoms: C_13  and  O_14
REMARK    7  A    between atoms: C_19  and  O_20
REMARK                            x       y       z     vdW  Elec       q    Type
REMARK                         _______ _______ _______ _____ _____    ______ ____
ROOT
ATOM      1  C   UNL     1      42.888  23.004 194.481  0.00  0.00    +0.000 C 
ATOM      2  C   UNL     1      42.817  21.676 194.193  0.00  0.00    +0.000 C 
ENDROOT
BRANCH   1   5
ATOM      3  C   UNL     1      39.994  25.424 194.711  0.00  0.00    +0.000 A 
ATOM      4  C   UNL     1      41.039  24.602 195.062  0.00  0.00    +0.000 A 
ATOM      5  C   UNL     1      41.747  23.928 194.087  0.00  0.00    +0.000 A 
ATOM      6  C   UNL     1      41.425  24.089 192.761  0.00  0.00    +0.000 A 
ATOM      7  C   UNL     1      40.400  24.933 192.394  0.00  0.00    +0.000 A 
ATOM      8  C   UNL     1      39.662  25.631 193.356  0.00  0.00    +0.000 A 
BRANCH   3  10
ATOM      9  C   UNL     1      39.465  25.490 197.012  0.00  0.00    +0.000 C 
ATOM     10  O   UNL     1      39.319  26.037 195.710  0.00  0.00    +0.000 OA
ENDBRANCH   3  10
BRANCH   8  11
ATOM     11  O   UNL     1      38.615  26.515 192.982  0.00  0.00    +0.000 OA
ATOM     12  H   UNL     1      38.748  27.504 193.051  0.00  0.00    +0.000 HD
ENDBRANCH   8  11
ENDBRANCH   1   5
BRANCH   2  13
ATOM     13  C   UNL     1      43.957  20.752 194.588  0.00  0.00    +0.000 C 
ATOM     14  O   UNL     1      43.706  19.586 195.027  0.00  0.00    +0.000 OA
BRANCH  13  15
ATOM     15  C   UNL     1      45.397  21.222 194.460  0.00  0.00    +0.000 A 
ATOM     16  C   UNL     1      46.336  20.254 194.183  0.00  0.00    +0.000 A 
ATOM     17  C   UNL     1      47.696  20.570 194.101  0.00  0.00    +0.000 A 
ATOM     18  C   UNL     1      48.066  21.917 194.294  0.00  0.00    +0.000 A 
ATOM     19  C   UNL     1      47.122  22.869 194.599  0.00  0.00    +0.000 A 
ATOM     20  C   UNL     1      45.788  22.522 194.673  0.00  0.00    +0.000 A 
BRANCH  18  21
ATOM     21  O   UNL     1      49.354  22.321 194.210  0.00  0.00    +0.000 OA
ATOM     22  H   UNL     1      49.877  22.151 193.374  0.00  0.00    +0.000 HD
ENDBRANCH  18  21
ENDBRANCH  13  15
ENDBRANCH   2  13
TORSDOF 6
ENDMDL
MODEL 4
REMARK VINA RESULT:    -7.164      2.404      3.186
REMARK INTER + INTRA:          -9.681
REMARK INTER:                  -9.191
REMARK INTRA:                  -0.490
REMARK UNBOUND:                -0.423
REMARK  Name = 
REMARK  7 active torsions:
REMARK  status: ('A' for Active; 'I' for Inactive)
REMARK    1  A    between atoms: C_1  and  O_2
REMARK    2  A    between atoms: O_2  and  C_3
REMARK    3  A    between atoms: C_5  and  C_6
REMARK    4  A    between atoms: C_7  and  C_8
REMARK    5  A    between atoms: C_8  and  C_10
REMARK    6  A    between atoms: C_13  and  O_14
REMARK    7  A    between atoms: C_19  and  O_20
REMARK                            x       y       z     vdW  Elec       q    Type
REMARK                         _______ _______ _______ _____ _____    ______ ____
ROOT
ATOM      1  C   UNL     1      42.453  20.750 192.783  0.00  0.00    +0.000 C 
ATOM      2  C   UNL     1      42.524  20.181 194.017  0.00  0.00    +0.000 C 
ENDROOT
BRANCH   1   5
ATOM      3  C   UNL     1      38.812  20.782 191.770  0.00  0.00    +0.000 A 
ATOM      4  C   UNL     1      40.021  20.371 192.278  0.00  0.00    +0.000 A 
ATOM      5  C   UNL     1      41.112  21.217 192.239  0.00  0.00    +0.000 A 
ATOM      6  C   UNL     1      40.991  22.479 191.710  0.00  0.00    +0.000 A 
ATOM      7  C   UNL     1      39.777  22.914 191.224  0.00  0.00    +0.000 A 
ATOM      8  C   UNL     1      38.652  22.083 191.249  0.00  0.00    +0.000 A 
BRANCH   3  10
ATOM      9  C   UNL     1      37.708  18.959 190.753  0.00  0.00    +0.000 C 
ATOM     10  O   UNL     1      37.785  19.902 191.811  0.00  0.00    +0.000 OA
ENDBRANCH   3  10
BRANCH   8  11
ATOM     11  O   UNL     1      37.395  22.533 190.766  0.00  0.00    +0.000 OA
ATOM     12  H   UNL     1      36.567  22.377 191.305  0.00  0.00    +0.000 HD
ENDBRANCH   8  11
ENDBRANCH   1   5
BRANCH   2  13
ATOM     13  C   UNL     1      43.865  19.715 194.561  0.00  0.00    +0.000 C 
ATOM     14  O   UNL     1      43.971  18.561 195.082  0.00  0.00    +0.000 OA
BRANCH  13  15
ATOM     15  C   UNL     1      45.077  20.629 194.484  0.00  0.00    +0.000 A 
ATOM     16  C   UNL     1      46.283  20.025 194.202  0.00  0.00    +0.000 A 
ATOM     17  C   UNL     1      47.469  20.766 194.164  0.00  0.00    +0.000 A 
ATOM     18  C   UNL     1      47.380  22.152 194.408  0.00  0.00    +0.000 A 
ATOM     19  C   UNL     1      46.175  22.738 194.717  0.00  0.00    +0.000 A 
ATOM     20  C   UNL     1      45.024  21.976 194.747  0.00  0.00    +0.000 A 
BRANCH  18  21
ATOM     21  O   UNL     1      48.470  22.952 194.369  0.00  0.00    +0.000 OA
ATOM     22  H   UNL     1      48.374  23.915 194.113  0.00  0.00    +0.000 HD
ENDBRANCH  18  21
ENDBRANCH  13  15
ENDBRANCH   2  13
TORSDOF 6
ENDMDL
MODEL 5
REMARK VINA RESULT:    -7.114      3.510      5.144
REMARK INTER + INTRA:          -9.617
REMARK INTER:                  -9.084
REMARK INTRA:                  -0.532
REMARK UNBOUND:                -0.423
REMARK  Name = 
REMARK  7 active torsions:
REMARK  status: ('A' for Active; 'I' for Inactive)
REMARK    1  A    between atoms: C_1  and  O_2
REMARK    2  A    between atoms: O_2  and  C_3
REMARK    3  A    between atoms: C_5  and  C_6
REMARK    4  A    between atoms: C_7  and  C_8
REMARK    5  A    between atoms: C_8  and  C_10
REMARK    6  A    between atoms: C_13  and  O_14
REMARK    7  A    between atoms: C_19  and  O_20
REMARK                            x       y       z     vdW  Elec       q    Type
REMARK                         _______ _______ _______ _____ _____    ______ ____
ROOT
ATOM      1  C   UNL     1      41.501  21.045 191.215  0.00  0.00    +0.000 C 
ATOM      2  C   UNL     1      41.692  21.558 192.461  0.00  0.00    +0.000 C 
ENDROOT
BRANCH   1   5
ATOM      3  C   UNL     1      38.086  19.435 191.373  0.00  0.00    +0.000 A 
ATOM      4  C   UNL     1      39.133  20.299 191.592  0.00  0.00    +0.000 A 
ATOM      5  C   UNL     1      40.340  20.101 190.952  0.00  0.00    +0.000 A 
ATOM      6  C   UNL     1      40.496  19.051 190.079  0.00  0.00    +0.000 A 
ATOM      7  C   UNL     1      39.445  18.196 189.828  0.00  0.00    +0.000 A 
ATOM      8  C   UNL     1      38.209  18.369 190.459  0.00  0.00    +0.000 A 
BRANCH   3  10
ATOM      9  C   UNL     1      36.818  19.071 193.331  0.00  0.00    +0.000 C 
ATOM     10  O   UNL     1      36.936  19.664 192.047  0.00  0.00    +0.000 OA
ENDBRANCH   3  10
BRANCH   8  11
ATOM     11  O   UNL     1      37.118  17.501 190.189  0.00  0.00    +0.000 OA
ATOM     12  H   UNL     1      37.261  16.511 190.168  0.00  0.00    +0.000 HD
ENDBRANCH   8  11
ENDBRANCH   1   5
BRANCH   2  13
ATOM     13  C   UNL     1      42.853  22.503 192.724  0.00  0.00    +0.000 C 
ATOM     14  O   UNL     1      42.726  23.745 192.490  0.00  0.00    +0.000 OA
BRANCH  13  15
ATOM     15  C   UNL     1      44.167  21.962 193.263  0.00  0.00    +0.000 A 
ATOM     16  C   UNL     1      44.089  20.835 194.051  0.00  0.00    +0.000 A 
ATOM     17  C   UNL     1      45.232  20.289 194.644  0.00  0.00    +0.000 A 
ATOM     18  C   UNL     1      46.465  20.924 194.392  0.00  0.00    +0.000 A 
ATOM     19  C   UNL     1      46.526  22.065 193.628  0.00  0.00    +0.000 A 
ATOM     20  C   UNL     1      45.377  22.578 193.058  0.00  0.00    +0.000 A 
BRANCH  18  21
ATOM     21  O   UNL     1      47.626  20.453 194.903  0.00  0.00    +0.000 OA
ATOM     22  H   UNL     1      48.127  20.991 195.581  0.00  0.00    +0.000 HD
ENDBRANCH  18  21
ENDBRANCH  13  15
ENDBRANCH   2  13
TORSDOF 6
ENDMDL
MODEL 6
REMARK VINA RESULT:    -7.067     10.370     14.159
REMARK INTER + INTRA:          -9.556
REMARK INTER:                  -9.132
REMARK INTRA:                  -0.423
REMARK UNBOUND:                -0.423
REMARK  Name = 
REMARK  7 active torsions:
REMARK  status: ('A' for Active; 'I' for Inactive)
REMARK    1  A    between atoms: C_1  and  O_2
REMARK    2  A    between atoms: O_2  and  C_3
REMARK    3  A    between atoms: C_5  and  C_6
REMARK    4  A    between atoms: C_7  and  C_8
REMARK    5  A    between atoms: C_8  and  C_10
REMARK    6  A    between atoms: C_13  and  O_14
REMARK    7  A    between atoms: C_19  and  O_20
REMARK                            x       y       z     vdW  Elec       q    Type
REMARK                         _______ _______ _______ _____ _____    ______ ____
ROOT
ATOM      1  C   UNL     1      52.854  30.245 199.472  0.00  0.00    +0.000 C 
ATOM      2  C   UNL     1      52.883  29.347 200.494  0.00  0.00    +0.000 C 
ENDROOT
BRANCH   1   5
ATOM      3  C   UNL     1      55.824  30.292 197.137  0.00  0.00    +0.000 A 
ATOM      4  C   UNL     1      54.644  29.926 197.740  0.00  0.00    +0.000 A 
ATOM      5  C   UNL     1      54.147  30.666 198.795  0.00  0.00    +0.000 A 
ATOM      6  C   UNL     1      54.819  31.781 199.235  0.00  0.00    +0.000 A 
ATOM      7  C   UNL     1      55.987  32.175 198.619  0.00  0.00    +0.000 A 
ATOM      8  C   UNL     1      56.517  31.448 197.548  0.00  0.00    +0.000 A 
BRANCH   3  10
ATOM      9  C   UNL     1      55.303  28.771 195.406  0.00  0.00    +0.000 C 
ATOM     10  O   UNL     1      56.275  29.514 196.126  0.00  0.00    +0.000 OA
ENDBRANCH   3  10
BRANCH   8  11
ATOM     11  O   UNL     1      57.711  31.860 196.899  0.00  0.00    +0.000 OA
ATOM     12  H   UNL     1      58.283  32.571 197.309  0.00  0.00    +0.000 HD
ENDBRANCH   8  11
ENDBRANCH   1   5
BRANCH   2  13
ATOM     13  C   UNL     1      51.589  28.926 201.172  0.00  0.00    +0.000 C 
ATOM     14  O   UNL     1      51.546  28.802 202.436  0.00  0.00    +0.000 OA
BRANCH  13  15
ATOM     15  C   UNL     1      50.347  28.652 200.339  0.00  0.00    +0.000 A 
ATOM     16  C   UNL     1      49.140  28.991 200.908  0.00  0.00    +0.000 A 
ATOM     17  C   UNL     1      47.934  28.729 200.250  0.00  0.00    +0.000 A 
ATOM     18  C   UNL     1      48.001  28.123 198.979  0.00  0.00    +0.000 A 
ATOM     19  C   UNL     1      49.212  27.762 198.434  0.00  0.00    +0.000 A 
ATOM     20  C   UNL     1      50.383  28.035 199.112  0.00  0.00    +0.000 A 
BRANCH  18  21
ATOM     21  O   UNL     1      46.889  27.854 198.259  0.00  0.00    +0.000 OA
ATOM     22  H   UNL     1      46.775  26.956 197.833  0.00  0.00    +0.000 HD
ENDBRANCH  18  21
ENDBRANCH  13  15
ENDBRANCH   2  13
TORSDOF 6
ENDMDL
MODEL 7
REMARK VINA RESULT:    -7.059     11.296     15.142
REMARK INTER + INTRA:          -9.546
REMARK INTER:                  -9.036
REMARK INTRA:                  -0.510
REMARK UNBOUND:                -0.423
REMARK  Name = 
REMARK  7 active torsions:
REMARK  status: ('A' for Active; 'I' for Inactive)
REMARK    1  A    between atoms: C_1  and  O_2
REMARK    2  A    between atoms: O_2  and  C_3
REMARK    3  A    between atoms: C_5  and  C_6
REMARK    4  A    between atoms: C_7  and  C_8
REMARK    5  A    between atoms: C_8  and  C_10
REMARK    6  A    between atoms: C_13  and  O_14
REMARK    7  A    between atoms: C_19  and  O_20
REMARK                            x       y       z     vdW  Elec       q    Type
REMARK                         _______ _______ _______ _____ _____    ______ ____
ROOT
ATOM      1  C   UNL     1      53.256  30.836 199.498  0.00  0.00    +0.000 C 
ATOM      2  C   UNL     1      53.199  29.661 200.183  0.00  0.00    +0.000 C 
ENDROOT
BRANCH   1   5
ATOM      3  C   UNL     1      56.812  32.082 199.209  0.00  0.00    +0.000 A 
ATOM      4  C   UNL     1      55.625  31.637 199.740  0.00  0.00    +0.000 A 
ATOM      5  C   UNL     1      54.574  31.307 198.906  0.00  0.00    +0.000 A 
ATOM      6  C   UNL     1      54.716  31.403 197.543  0.00  0.00    +0.000 A 
ATOM      7  C   UNL     1      55.911  31.819 196.998  0.00  0.00    +0.000 A 
ATOM      8  C   UNL     1      56.995  32.161 197.813  0.00  0.00    +0.000 A 
BRANCH   3  10
ATOM      9  C   UNL     1      57.779  33.741 200.584  0.00  0.00    +0.000 C 
ATOM     10  O   UNL     1      57.797  32.415 200.075  0.00  0.00    +0.000 OA
ENDBRANCH   3  10
BRANCH   8  11
ATOM     11  O   UNL     1      58.234  32.573 197.255  0.00  0.00    +0.000 OA
ATOM     12  H   UNL     1      58.598  32.107 196.449  0.00  0.00    +0.000 HD
ENDBRANCH   8  11
ENDBRANCH   1   5
BRANCH   2  13
ATOM     13  C   UNL     1      51.881  29.191 200.774  0.00  0.00    +0.000 C 
ATOM     14  O   UNL     1      51.719  29.179 202.035  0.00  0.00    +0.000 OA
BRANCH  13  15
ATOM     15  C   UNL     1      50.757  28.732 199.860  0.00  0.00    +0.000 A 
ATOM     16  C   UNL     1      49.483  28.785 200.380  0.00  0.00    +0.000 A 
ATOM     17  C   UNL     1      48.383  28.333 199.643  0.00  0.00    +0.000 A 
ATOM     18  C   UNL     1      48.626  27.838 198.345  0.00  0.00    +0.000 A 
ATOM     19  C   UNL     1      49.906  27.763 197.848  0.00  0.00    +0.000 A 
ATOM     20  C   UNL     1      50.969  28.218 198.604  0.00  0.00    +0.000 A 
BRANCH  18  21
ATOM     21  O   UNL     1      47.622  27.402 197.550  0.00  0.00    +0.000 OA
ATOM     22  H   UNL     1      47.795  27.223 196.581  0.00  0.00    +0.000 HD
ENDBRANCH  18  21
ENDBRANCH  13  15
ENDBRANCH   2  13
TORSDOF 6
ENDMDL
MODEL 8
REMARK VINA RESULT:    -6.950     11.276     15.143
REMARK INTER + INTRA:          -9.405
REMARK INTER:                  -8.857
REMARK INTRA:                  -0.548
REMARK UNBOUND:                -0.423
REMARK  Name = 
REMARK  7 active torsions:
REMARK  status: ('A' for Active; 'I' for Inactive)
REMARK    1  A    between atoms: C_1  and  O_2
REMARK    2  A    between atoms: O_2  and  C_3
REMARK    3  A    between atoms: C_5  and  C_6
REMARK    4  A    between atoms: C_7  and  C_8
REMARK    5  A    between atoms: C_8  and  C_10
REMARK    6  A    between atoms: C_13  and  O_14
REMARK    7  A    between atoms: C_19  and  O_20
REMARK                            x       y       z     vdW  Elec       q    Type
REMARK                         _______ _______ _______ _____ _____    ______ ____
ROOT
ATOM      1  C   UNL     1      53.703  30.532 197.666  0.00  0.00    +0.000 C 
ATOM      2  C   UNL     1      53.538  29.215 197.969  0.00  0.00    +0.000 C 
ENDROOT
BRANCH   1   5
ATOM      3  C   UNL     1      56.211  32.363 199.820  0.00  0.00    +0.000 A 
ATOM      4  C   UNL     1      55.084  31.685 199.419  0.00  0.00    +0.000 A 
ATOM      5  C   UNL     1      54.960  31.261 198.110  0.00  0.00    +0.000 A 
ATOM      6  C   UNL     1      55.969  31.497 197.208  0.00  0.00    +0.000 A 
ATOM      7  C   UNL     1      57.117  32.148 197.605  0.00  0.00    +0.000 A 
ATOM      8  C   UNL     1      57.274  32.591 198.923  0.00  0.00    +0.000 A 
BRANCH   3  10
ATOM      9  C   UNL     1      55.565  33.970 201.425  0.00  0.00    +0.000 C 
ATOM     10  O   UNL     1      56.265  32.777 201.107  0.00  0.00    +0.000 OA
ENDBRANCH   3  10
BRANCH   8  11
ATOM     11  O   UNL     1      58.462  33.247 199.341  0.00  0.00    +0.000 OA
ATOM     12  H   UNL     1      58.954  32.923 200.149  0.00  0.00    +0.000 HD
ENDBRANCH   8  11
ENDBRANCH   1   5
BRANCH   2  13
ATOM     13  C   UNL     1      52.281  28.486 197.525  0.00  0.00    +0.000 C 
ATOM     14  O   UNL     1      52.234  27.946 196.376  0.00  0.00    +0.000 OA
BRANCH  13  15
ATOM     15  C   UNL     1      51.080  28.404 198.453  0.00  0.00    +0.000 A 
ATOM     16  C   UNL     1      49.870  28.111 197.865  0.00  0.00    +0.000 A 
ATOM     17  C   UNL     1      48.693  28.068 198.620  0.00  0.00    +0.000 A 
ATOM     18  C   UNL     1      48.795  28.319 200.004  0.00  0.00    +0.000 A 
ATOM     19  C   UNL     1      50.005  28.640 200.574  0.00  0.00    +0.000 A 
ATOM     20  C   UNL     1      51.147  28.675 199.798  0.00  0.00    +0.000 A 
BRANCH  18  21
ATOM     21  O   UNL     1      47.715  28.276 200.817  0.00  0.00    +0.000 OA
ATOM     22  H   UNL     1      47.023  28.996 200.766  0.00  0.00    +0.000 HD
ENDBRANCH  18  21
ENDBRANCH  13  15
ENDBRANCH   2  13
TORSDOF 6
ENDMDL
MODEL 9
REMARK VINA RESULT:    -6.875     12.494     16.220
REMARK INTER + INTRA:          -9.308
REMARK INTER:                  -8.777
REMARK INTRA:                  -0.532
REMARK UNBOUND:                -0.423
REMARK  Name = 
REMARK  7 active torsions:
REMARK  status: ('A' for Active; 'I' for Inactive)
REMARK    1  A    between atoms: C_1  and  O_2
REMARK    2  A    between atoms: O_2  and  C_3
REMARK    3  A    between atoms: C_5  and  C_6
REMARK    4  A    between atoms: C_7  and  C_8
REMARK    5  A    between atoms: C_8  and  C_10
REMARK    6  A    between atoms: C_13  and  O_14
REMARK    7  A    between atoms: C_19  and  O_20
REMARK                            x       y       z     vdW  Elec       q    Type
REMARK                         _______ _______ _______ _____ _____    ______ ____
ROOT
ATOM      1  C   UNL     1      53.968  32.128 199.339  0.00  0.00    +0.000 C 
ATOM      2  C   UNL     1      53.976  30.809 199.002  0.00  0.00    +0.000 C 
ENDROOT
BRANCH   1   5
ATOM      3  C   UNL     1      57.209  32.520 201.243  0.00  0.00    +0.000 A 
ATOM      4  C   UNL     1      56.250  32.036 200.384  0.00  0.00    +0.000 A 
ATOM      5  C   UNL     1      55.032  32.679 200.273  0.00  0.00    +0.000 A 
ATOM      6  C   UNL     1      54.780  33.813 201.005  0.00  0.00    +0.000 A 
ATOM      7  C   UNL     1      55.744  34.325 201.846  0.00  0.00    +0.000 A 
ATOM      8  C   UNL     1      56.987  33.700 201.982  0.00  0.00    +0.000 A 
BRANCH   3  10
ATOM      9  C   UNL     1      58.337  30.464 200.959  0.00  0.00    +0.000 C 
ATOM     10  O   UNL     1      58.372  31.835 201.330  0.00  0.00    +0.000 OA
ENDBRANCH   3  10
BRANCH   8  11
ATOM     11  O   UNL     1      57.990  34.233 202.835  0.00  0.00    +0.000 OA
ATOM     12  H   UNL     1      58.718  33.642 203.181  0.00  0.00    +0.000 HD
ENDBRANCH   8  11
ENDBRANCH   1   5
BRANCH   2  13
ATOM     13  C   UNL     1      52.911  30.259 198.068  0.00  0.00    +0.000 C 
ATOM     14  O   UNL     1      53.105  30.261 196.812  0.00  0.00    +0.000 OA
BRANCH  13  15
ATOM     15  C   UNL     1      51.612  29.707 198.635  0.00  0.00    +0.000 A 
ATOM     16  C   UNL     1      51.695  29.080 199.858  0.00  0.00    +0.000 A 
ATOM     17  C   UNL     1      50.571  28.488 200.442  0.00  0.00    +0.000 A 
ATOM     18  C   UNL     1      49.350  28.573 199.742  0.00  0.00    +0.000 A 
ATOM     19  C   UNL     1      49.287  29.176 198.508  0.00  0.00    +0.000 A 
ATOM     20  C   UNL     1      50.417  29.749 197.960  0.00  0.00    +0.000 A 
BRANCH  18  21
ATOM     21  O   UNL     1      48.206  28.050 200.240  0.00  0.00    +0.000 OA
ATOM     22  H   UNL     1      47.717  28.526 200.972  0.00  0.00    +0.000 HD
ENDBRANCH  18  21
ENDBRANCH  13  15
ENDBRANCH   2  13
TORSDOF 6
ENDMDL
