MODEL 1
REMARK VINA RESULT:    -6.566      0.000      0.000
REMARK INTER + INTRA:          -8.578
REMARK INTER:                  -8.134
REMARK INTRA:                  -0.444
REMARK UNBOUND:                -0.477
REMARK  Name = 
REMARK  6 active torsions:
REMARK  status: ('A' for Active; 'I' for Inactive)
REMARK    1  A    between atoms: C_1  and  O_2
REMARK    2  A    between atoms: O_2  and  C_3
REMARK    3  A    between atoms: C_5  and  C_6
REMARK    4  A    between atoms: C_7  and  C_8
REMARK    5  A    between atoms: C_15  and  O_16
REMARK    6  A    between atoms: O_16  and  C_17
REMARK                            x       y       z     vdW  Elec       q    Type
REMARK                         _______ _______ _______ _____ _____    ______ ____
ROOT
ATOM      1  C   UNL     1      55.576  30.254 197.982  0.00  0.00    +0.000 A 
ATOM      2  C   UNL     1      54.243  30.493 198.275  0.00  0.00    +0.000 A 
ATOM      3  C   UNL     1      53.341  29.936 197.338  0.00  0.00    +0.000 A 
ATOM      4  C   UNL     1      53.671  29.546 196.121  0.00  0.00    +0.000 A 
ATOM      5  C   UNL     1      55.008  29.394 195.873  0.00  0.00    +0.000 A 
ATOM      6  C   UNL     1      55.946  29.794 196.793  0.00  0.00    +0.000 A 
ENDROOT
BRANCH   1   8
ATOM      7  C   UNL     1      56.956  31.959 199.092  0.00  0.00    +0.000 C 
ATOM      8  O   UNL     1      56.546  30.607 198.957  0.00  0.00    +0.000 OA
ENDBRANCH   1   8
BRANCH   3   9
ATOM      9  C   UNL     1      51.890  29.777 197.762  0.00  0.00    +0.000 C 
ATOM     10  C   UNL     1      51.494  28.657 198.425  0.00  0.00    +0.000 C 
BRANCH  10  11
ATOM     11  C   UNL     1      50.042  28.498 198.848  0.00  0.00    +0.000 A 
ATOM     12  C   UNL     1      49.116  27.836 198.059  0.00  0.00    +0.000 A 
ATOM     13  C   UNL     1      47.780  27.970 198.508  0.00  0.00    +0.000 A 
ATOM     14  C   UNL     1      47.434  28.356 199.723  0.00  0.00    +0.000 A 
ATOM     15  C   UNL     1      48.412  28.941 200.478  0.00  0.00    +0.000 A 
ATOM     16  C   UNL     1      49.717  28.966 200.047  0.00  0.00    +0.000 A 
ENDBRANCH  10  11
ENDBRANCH   3   9
BRANCH   5  17
ATOM     17  O   UNL     1      55.431  28.817 194.647  0.00  0.00    +0.000 OA
ATOM     18  C   UNL     1      55.732  27.431 194.581  0.00  0.00    +0.000 C 
ENDBRANCH   5  17
TORSDOF 4
ENDMDL
MODEL 2
REMARK VINA RESULT:    -6.485     10.818     14.746
REMARK INTER + INTRA:          -8.478
REMARK INTER:                  -8.003
REMARK INTRA:                  -0.474
REMARK UNBOUND:                -0.477
REMARK  Name = 
REMARK  6 active torsions:
REMARK  status: ('A' for Active; 'I' for Inactive)
REMARK    1  A    between atoms: C_1  and  O_2
REMARK    2  A    between atoms: O_2  and  C_3
REMARK    3  A    between atoms: C_5  and  C_6
REMARK    4  A    between atoms: C_7  and  C_8
REMARK    5  A    between atoms: C_15  and  O_16
REMARK    6  A    between atoms: O_16  and  C_17
REMARK                            x       y       z     vdW  Elec       q    Type
REMARK                         _______ _______ _______ _____ _____    ______ ____
ROOT
ATOM      1  C   UNL     1      39.742  22.064 192.008  0.00  0.00    +0.000 A 
ATOM      2  C   UNL     1      41.120  22.092 191.873  0.00  0.00    +0.000 A 
ATOM      3  C   UNL     1      41.754  23.089 192.651  0.00  0.00    +0.000 A 
ATOM      4  C   UNL     1      41.138  24.134 193.174  0.00  0.00    +0.000 A 
ATOM      5  C   UNL     1      39.772  24.077 193.216  0.00  0.00    +0.000 A 
ATOM      6  C   UNL     1      39.088  23.062 192.591  0.00  0.00    +0.000 A 
ENDROOT
BRANCH   1   8
ATOM      7  C   UNL     1      39.700  19.755 191.166  0.00  0.00    +0.000 C 
ATOM      8  O   UNL     1      39.036  20.983 191.417  0.00  0.00    +0.000 OA
ENDBRANCH   1   8
BRANCH   3   9
ATOM      9  C   UNL     1      43.246  22.950 192.901  0.00  0.00    +0.000 C 
ATOM     10  C   UNL     1      43.698  22.098 193.860  0.00  0.00    +0.000 C 
BRANCH  10  11
ATOM     11  C   UNL     1      45.191  21.959 194.111  0.00  0.00    +0.000 A 
ATOM     12  C   UNL     1      45.972  23.031 194.512  0.00  0.00    +0.000 A 
ATOM     13  C   UNL     1      47.362  22.768 194.490  0.00  0.00    +0.000 A 
ATOM     14  C   UNL     1      47.895  21.560 194.455  0.00  0.00    +0.000 A 
ATOM     15  C   UNL     1      47.057  20.534 194.119  0.00  0.00    +0.000 A 
ATOM     16  C   UNL     1      45.704  20.739 193.993  0.00  0.00    +0.000 A 
ENDBRANCH  10  11
ENDBRANCH   3   9
BRANCH   5  17
ATOM     17  O   UNL     1      39.051  25.080 193.915  0.00  0.00    +0.000 OA
ATOM     18  C   UNL     1      39.666  25.782 194.985  0.00  0.00    +0.000 C 
ENDBRANCH   5  17
TORSDOF 4
ENDMDL
MODEL 3
REMARK VINA RESULT:    -6.481     10.836     14.608
REMARK INTER + INTRA:          -8.473
REMARK INTER:                  -8.037
REMARK INTRA:                  -0.436
REMARK UNBOUND:                -0.477
REMARK  Name = 
REMARK  6 active torsions:
REMARK  status: ('A' for Active; 'I' for Inactive)
REMARK    1  A    between atoms: C_1  and  O_2
REMARK    2  A    between atoms: O_2  and  C_3
REMARK    3  A    between atoms: C_5  and  C_6
REMARK    4  A    between atoms: C_7  and  C_8
REMARK    5  A    between atoms: C_15  and  O_16
REMARK    6  A    between atoms: O_16  and  C_17
REMARK                            x       y       z     vdW  Elec       q    Type
REMARK                         _______ _______ _______ _____ _____    ______ ____
ROOT
ATOM      1  C   UNL     1      39.741  23.980 193.455  0.00  0.00    +0.000 A 
ATOM      2  C   UNL     1      41.032  23.647 193.829  0.00  0.00    +0.000 A 
ATOM      3  C   UNL     1      41.569  22.545 193.121  0.00  0.00    +0.000 A 
ATOM      4  C   UNL     1      40.850  21.670 192.442  0.00  0.00    +0.000 A 
ATOM      5  C   UNL     1      39.560  22.029 192.162  0.00  0.00    +0.000 A 
ATOM      6  C   UNL     1      39.007  23.161 192.711  0.00  0.00    +0.000 A 
ENDROOT
BRANCH   1   8
ATOM      7  C   UNL     1      39.684  25.730 195.181  0.00  0.00    +0.000 C 
ATOM      8  O   UNL     1      39.188  25.182 193.970  0.00  0.00    +0.000 OA
ENDBRANCH   1   8
BRANCH   3   9
ATOM      9  C   UNL     1      43.076  22.354 193.146  0.00  0.00    +0.000 C 
ATOM     10  C   UNL     1      43.711  22.107 194.324  0.00  0.00    +0.000 C 
BRANCH  10  11
ATOM     11  C   UNL     1      45.219  21.916 194.349  0.00  0.00    +0.000 A 
ATOM     12  C   UNL     1      46.088  22.969 194.584  0.00  0.00    +0.000 A 
ATOM     13  C   UNL     1      47.449  22.650 194.360  0.00  0.00    +0.000 A 
ATOM     14  C   UNL     1      47.928  21.421 194.291  0.00  0.00    +0.000 A 
ATOM     15  C   UNL     1      47.013  20.418 194.127  0.00  0.00    +0.000 A 
ATOM     16  C   UNL     1      45.664  20.674 194.202  0.00  0.00    +0.000 A 
ENDBRANCH  10  11
ENDBRANCH   3   9
BRANCH   5  17
ATOM     17  O   UNL     1      38.781  21.221 191.293  0.00  0.00    +0.000 OA
ATOM     18  C   UNL     1      38.380  19.921 191.701  0.00  0.00    +0.000 C 
ENDBRANCH   5  17
TORSDOF 4
ENDMDL
MODEL 4
REMARK VINA RESULT:    -6.434      3.168      7.172
REMARK INTER + INTRA:          -8.415
REMARK INTER:                  -7.961
REMARK INTRA:                  -0.454
REMARK UNBOUND:                -0.477
REMARK  Name = 
REMARK  6 active torsions:
REMARK  status: ('A' for Active; 'I' for Inactive)
REMARK    1  A    between atoms: C_1  and  O_2
REMARK    2  A    between atoms: O_2  and  C_3
REMARK    3  A    between atoms: C_5  and  C_6
REMARK    4  A    between atoms: C_7  and  C_8
REMARK    5  A    between atoms: C_15  and  O_16
REMARK    6  A    between atoms: O_16  and  C_17
REMARK                            x       y       z     vdW  Elec       q    Type
REMARK                         _______ _______ _______ _____ _____    ______ ____
ROOT
ATOM      1  C   UNL     1      49.521  28.660 199.700  0.00  0.00    +0.000 A 
ATOM      2  C   UNL     1      50.489  28.905 198.740  0.00  0.00    +0.000 A 
ATOM      3  C   UNL     1      51.810  28.911 199.246  0.00  0.00    +0.000 A 
ATOM      4  C   UNL     1      52.122  29.042 200.523  0.00  0.00    +0.000 A 
ATOM      5  C   UNL     1      51.107  28.855 201.420  0.00  0.00    +0.000 A 
ATOM      6  C   UNL     1      49.808  28.711 200.995  0.00  0.00    +0.000 A 
ENDROOT
BRANCH   1   8
ATOM      7  C   UNL     1      47.907  27.439 198.303  0.00  0.00    +0.000 C 
ATOM      8  O   UNL     1      48.187  28.447 199.262  0.00  0.00    +0.000 OA
ENDBRANCH   1   8
BRANCH   3   9
ATOM      9  C   UNL     1      52.949  28.758 198.252  0.00  0.00    +0.000 C 
ATOM     10  C   UNL     1      52.718  28.199 197.034  0.00  0.00    +0.000 C 
BRANCH  10  11
ATOM     11  C   UNL     1      53.857  28.046 196.040  0.00  0.00    +0.000 A 
ATOM     12  C   UNL     1      54.463  26.823 195.799  0.00  0.00    +0.000 A 
ATOM     13  C   UNL     1      55.635  26.909 195.010  0.00  0.00    +0.000 A 
ATOM     14  C   UNL     1      55.958  27.946 194.259  0.00  0.00    +0.000 A 
ATOM     15  C   UNL     1      55.276  29.107 194.499  0.00  0.00    +0.000 A 
ATOM     16  C   UNL     1      54.202  29.131 195.357  0.00  0.00    +0.000 A 
ENDBRANCH  10  11
ENDBRANCH   3   9
BRANCH   5  17
ATOM     17  O   UNL     1      51.399  28.810 202.808  0.00  0.00    +0.000 OA
ATOM     18  C   UNL     1      51.203  29.964 203.612  0.00  0.00    +0.000 C 
ENDBRANCH   5  17
TORSDOF 4
ENDMDL
MODEL 5
REMARK VINA RESULT:    -6.403      2.445      6.539
REMARK INTER + INTRA:          -8.377
REMARK INTER:                  -7.903
REMARK INTRA:                  -0.475
REMARK UNBOUND:                -0.477
REMARK  Name = 
REMARK  6 active torsions:
REMARK  status: ('A' for Active; 'I' for Inactive)
REMARK    1  A    between atoms: C_1  and  O_2
REMARK    2  A    between atoms: O_2  and  C_3
REMARK    3  A    between atoms: C_5  and  C_6
REMARK    4  A    between atoms: C_7  and  C_8
REMARK    5  A    between atoms: C_15  and  O_16
REMARK    6  A    between atoms: O_16  and  C_17
REMARK                            x       y       z     vdW  Elec       q    Type
REMARK                         _______ _______ _______ _____ _____    ______ ____
ROOT
ATOM      1  C   UNL     1      52.649  28.335 196.484  0.00  0.00    +0.000 A 
ATOM      2  C   UNL     1      53.312  29.525 196.737  0.00  0.00    +0.000 A 
ATOM      3  C   UNL     1      52.641  30.372 197.651  0.00  0.00    +0.000 A 
ATOM      4  C   UNL     1      51.365  30.266 197.972  0.00  0.00    +0.000 A 
ATOM      5  C   UNL     1      50.748  29.093 197.634  0.00  0.00    +0.000 A 
ATOM      6  C   UNL     1      51.386  28.160 196.853  0.00  0.00    +0.000 A 
ENDROOT
BRANCH   1   8
ATOM      7  C   UNL     1      54.464  27.693 194.954  0.00  0.00    +0.000 C 
ATOM      8  O   UNL     1      53.329  27.342 195.731  0.00  0.00    +0.000 OA
ENDBRANCH   1   8
BRANCH   3   9
ATOM      9  C   UNL     1      53.445  31.482 198.308  0.00  0.00    +0.000 C 
ATOM     10  C   UNL     1      54.512  31.176 199.095  0.00  0.00    +0.000 C 
BRANCH  10  11
ATOM     11  C   UNL     1      55.315  32.286 199.752  0.00  0.00    +0.000 A 
ATOM     12  C   UNL     1      56.699  32.321 199.700  0.00  0.00    +0.000 A 
ATOM     13  C   UNL     1      57.280  33.300 200.540  0.00  0.00    +0.000 A 
ATOM     14  C   UNL     1      56.629  34.327 201.055  0.00  0.00    +0.000 A 
ATOM     15  C   UNL     1      55.263  34.264 201.014  0.00  0.00    +0.000 A 
ATOM     16  C   UNL     1      54.623  33.264 200.323  0.00  0.00    +0.000 A 
ENDBRANCH  10  11
ENDBRANCH   3   9
BRANCH   5  17
ATOM     17  O   UNL     1      49.431  28.837 198.095  0.00  0.00    +0.000 OA
ATOM     18  C   UNL     1      49.205  28.521 199.461  0.00  0.00    +0.000 C 
ENDBRANCH   5  17
TORSDOF 4
ENDMDL
MODEL 6
REMARK VINA RESULT:    -6.385     11.687     14.865
REMARK INTER + INTRA:          -8.355
REMARK INTER:                  -7.864
REMARK INTRA:                  -0.491
REMARK UNBOUND:                -0.477
REMARK  Name = 
REMARK  6 active torsions:
REMARK  status: ('A' for Active; 'I' for Inactive)
REMARK    1  A    between atoms: C_1  and  O_2
REMARK    2  A    between atoms: O_2  and  C_3
REMARK    3  A    between atoms: C_5  and  C_6
REMARK    4  A    between atoms: C_7  and  C_8
REMARK    5  A    between atoms: C_15  and  O_16
REMARK    6  A    between atoms: O_16  and  C_17
REMARK                            x       y       z     vdW  Elec       q    Type
REMARK                         _______ _______ _______ _____ _____    ______ ____
ROOT
ATOM      1  C   UNL     1      42.439  24.473 193.843  0.00  0.00    +0.000 A 
ATOM      2  C   UNL     1      41.863  23.747 192.813  0.00  0.00    +0.000 A 
ATOM      3  C   UNL     1      42.584  22.582 192.459  0.00  0.00    +0.000 A 
ATOM      4  C   UNL     1      43.846  22.358 192.776  0.00  0.00    +0.000 A 
ATOM      5  C   UNL     1      44.379  23.155 193.752  0.00  0.00    +0.000 A 
ATOM      6  C   UNL     1      43.682  24.233 194.242  0.00  0.00    +0.000 A 
ENDROOT
BRANCH   1   8
ATOM      7  C   UNL     1      40.512  25.289 195.133  0.00  0.00    +0.000 C 
ATOM      8  O   UNL     1      41.696  25.550 194.396  0.00  0.00    +0.000 OA
ENDBRANCH   1   8
BRANCH   3   9
ATOM      9  C   UNL     1      41.857  21.517 191.656  0.00  0.00    +0.000 C 
ATOM     10  C   UNL     1      40.586  21.165 191.986  0.00  0.00    +0.000 C 
BRANCH  10  11
ATOM     11  C   UNL     1      39.859  20.098 191.184  0.00  0.00    +0.000 A 
ATOM     12  C   UNL     1      38.484  19.940 191.247  0.00  0.00    +0.000 A 
ATOM     13  C   UNL     1      38.010  18.772 190.604  0.00  0.00    +0.000 A 
ATOM     14  C   UNL     1      38.699  18.071 189.721  0.00  0.00    +0.000 A 
ATOM     15  C   UNL     1      40.042  18.322 189.660  0.00  0.00    +0.000 A 
ATOM     16  C   UNL     1      40.599  19.365 190.361  0.00  0.00    +0.000 A 
ENDBRANCH  10  11
ENDBRANCH   3   9
BRANCH   5  17
ATOM     17  O   UNL     1      45.670  22.864 194.265  0.00  0.00    +0.000 OA
ATOM     18  C   UNL     1      46.050  21.518 194.511  0.00  0.00    +0.000 C 
ENDBRANCH   5  17
TORSDOF 4
ENDMDL
MODEL 7
REMARK VINA RESULT:    -6.375      2.930      6.237
REMARK INTER + INTRA:          -8.342
REMARK INTER:                  -7.870
REMARK INTRA:                  -0.472
REMARK UNBOUND:                -0.477
REMARK  Name = 
REMARK  6 active torsions:
REMARK  status: ('A' for Active; 'I' for Inactive)
REMARK    1  A    between atoms: C_1  and  O_2
REMARK    2  A    between atoms: O_2  and  C_3
REMARK    3  A    between atoms: C_5  and  C_6
REMARK    4  A    between atoms: C_7  and  C_8
REMARK    5  A    between atoms: C_15  and  O_16
REMARK    6  A    between atoms: O_16  and  C_17
REMARK                            x       y       z     vdW  Elec       q    Type
REMARK                         _______ _______ _______ _____ _____    ______ ____
ROOT
ATOM      1  C   UNL     1      50.293  28.353 198.160  0.00  0.00    +0.000 A 
ATOM      2  C   UNL     1      50.958  28.858 199.265  0.00  0.00    +0.000 A 
ATOM      3  C   UNL     1      52.271  29.307 198.988  0.00  0.00    +0.000 A 
ATOM      4  C   UNL     1      52.966  28.974 197.916  0.00  0.00    +0.000 A 
ATOM      5  C   UNL     1      52.262  28.417 196.884  0.00  0.00    +0.000 A 
ATOM      6  C   UNL     1      50.941  28.071 197.037  0.00  0.00    +0.000 A 
ENDROOT
BRANCH   1   8
ATOM      7  C   UNL     1      48.227  28.382 199.493  0.00  0.00    +0.000 C 
ATOM      8  O   UNL     1      48.911  28.053 198.294  0.00  0.00    +0.000 OA
ENDBRANCH   1   8
BRANCH   3   9
ATOM      9  C   UNL     1      52.928  30.236 199.996  0.00  0.00    +0.000 C 
ATOM     10  C   UNL     1      53.878  31.120 199.588  0.00  0.00    +0.000 C 
BRANCH  10  11
ATOM     11  C   UNL     1      54.536  32.048 200.596  0.00  0.00    +0.000 A 
ATOM     12  C   UNL     1      55.018  31.590 201.811  0.00  0.00    +0.000 A 
ATOM     13  C   UNL     1      55.400  32.621 202.702  0.00  0.00    +0.000 A 
ATOM     14  C   UNL     1      55.637  33.870 202.344  0.00  0.00    +0.000 A 
ATOM     15  C   UNL     1      55.197  34.242 201.105  0.00  0.00    +0.000 A 
ATOM     16  C   UNL     1      54.690  33.314 200.227  0.00  0.00    +0.000 A 
ENDBRANCH  10  11
ENDBRANCH   3   9
BRANCH   5  17
ATOM     17  O   UNL     1      52.905  28.191 195.639  0.00  0.00    +0.000 OA
ATOM     18  C   UNL     1      53.638  29.237 195.018  0.00  0.00    +0.000 C 
ENDBRANCH   5  17
TORSDOF 4
ENDMDL
MODEL 8
REMARK VINA RESULT:    -6.369      0.638      2.962
REMARK INTER + INTRA:          -8.335
REMARK INTER:                  -7.911
REMARK INTRA:                  -0.424
REMARK UNBOUND:                -0.477
REMARK  Name = 
REMARK  6 active torsions:
REMARK  status: ('A' for Active; 'I' for Inactive)
REMARK    1  A    between atoms: C_1  and  O_2
REMARK    2  A    between atoms: O_2  and  C_3
REMARK    3  A    between atoms: C_5  and  C_6
REMARK    4  A    between atoms: C_7  and  C_8
REMARK    5  A    between atoms: C_15  and  O_16
REMARK    6  A    between atoms: O_16  and  C_17
REMARK                            x       y       z     vdW  Elec       q    Type
REMARK                         _______ _______ _______ _____ _____    ______ ____
ROOT
ATOM      1  C   UNL     1      55.587  29.154 196.222  0.00  0.00    +0.000 A 
ATOM      2  C   UNL     1      54.347  28.743 196.681  0.00  0.00    +0.000 A 
ATOM      3  C   UNL     1      53.763  29.623 197.624  0.00  0.00    +0.000 A 
ATOM      4  C   UNL     1      54.426  30.543 198.299  0.00  0.00    +0.000 A 
ATOM      5  C   UNL     1      55.674  30.857 197.836  0.00  0.00    +0.000 A 
ATOM      6  C   UNL     1      56.258  30.126 196.830  0.00  0.00    +0.000 A 
ENDROOT
BRANCH   1   8
ATOM      7  C   UNL     1      55.523  27.286 194.626  0.00  0.00    +0.000 C 
ATOM      8  O   UNL     1      56.167  28.441 195.140  0.00  0.00    +0.000 OA
ENDBRANCH   1   8
BRANCH   3   9
ATOM      9  C   UNL     1      52.270  29.499 197.876  0.00  0.00    +0.000 C 
ATOM     10  C   UNL     1      51.806  28.600 198.786  0.00  0.00    +0.000 C 
BRANCH  10  11
ATOM     11  C   UNL     1      50.312  28.475 199.038  0.00  0.00    +0.000 A 
ATOM     12  C   UNL     1      49.451  27.930 198.099  0.00  0.00    +0.000 A 
ATOM     13  C   UNL     1      48.081  28.090 198.416  0.00  0.00    +0.000 A 
ATOM     14  C   UNL     1      47.620  28.385 199.618  0.00  0.00    +0.000 A 
ATOM     15  C   UNL     1      48.533  28.854 200.522  0.00  0.00    +0.000 A 
ATOM     16  C   UNL     1      49.877  28.852 200.235  0.00  0.00    +0.000 A 
ENDBRANCH  10  11
ENDBRANCH   3   9
BRANCH   5  17
ATOM     17  O   UNL     1      56.376  31.952 198.404  0.00  0.00    +0.000 OA
ATOM     18  C   UNL     1      57.176  31.759 199.561  0.00  0.00    +0.000 C 
ENDBRANCH   5  17
TORSDOF 4
ENDMDL
MODEL 9
REMARK VINA RESULT:    -6.357     11.397     14.520
REMARK INTER + INTRA:          -8.319
REMARK INTER:                  -7.843
REMARK INTRA:                  -0.477
REMARK UNBOUND:                -0.477
REMARK  Name = 
REMARK  6 active torsions:
REMARK  status: ('A' for Active; 'I' for Inactive)
REMARK    1  A    between atoms: C_1  and  O_2
REMARK    2  A    between atoms: O_2  and  C_3
REMARK    3  A    between atoms: C_5  and  C_6
REMARK    4  A    between atoms: C_7  and  C_8
REMARK    5  A    between atoms: C_15  and  O_16
REMARK    6  A    between atoms: O_16  and  C_17
REMARK                            x       y       z     vdW  Elec       q    Type
REMARK                         _______ _______ _______ _____ _____    ______ ____
ROOT
ATOM      1  C   UNL     1      45.099  22.622 194.461  0.00  0.00    +0.000 A 
ATOM      2  C   UNL     1      44.449  21.415 194.257  0.00  0.00    +0.000 A 
ATOM      3  C   UNL     1      43.116  21.551 193.802  0.00  0.00    +0.000 A 
ATOM      4  C   UNL     1      42.402  22.657 193.896  0.00  0.00    +0.000 A 
ATOM      5  C   UNL     1      43.093  23.806 194.168  0.00  0.00    +0.000 A 
ATOM      6  C   UNL     1      44.428  23.767 194.493  0.00  0.00    +0.000 A 
ENDROOT
BRANCH   1   8
ATOM      7  C   UNL     1      47.282  21.506 194.271  0.00  0.00    +0.000 C 
ATOM      8  O   UNL     1      46.492  22.590 194.735  0.00  0.00    +0.000 OA
ENDBRANCH   1   8
BRANCH   3   9
ATOM      9  C   UNL     1      42.460  20.339 193.162  0.00  0.00    +0.000 C 
ATOM     10  C   UNL     1      41.399  20.501 192.328  0.00  0.00    +0.000 C 
BRANCH  10  11
ATOM     11  C   UNL     1      40.742  19.288 191.688  0.00  0.00    +0.000 A 
ATOM     12  C   UNL     1      40.301  18.210 192.439  0.00  0.00    +0.000 A 
ATOM     13  C   UNL     1      39.915  17.091 191.663  0.00  0.00    +0.000 A 
ATOM     14  C   UNL     1      39.636  17.135 190.373  0.00  0.00    +0.000 A 
ATOM     15  C   UNL     1      40.037  18.256 189.701  0.00  0.00    +0.000 A 
ATOM     16  C   UNL     1      40.546  19.340 190.376  0.00  0.00    +0.000 A 
ENDBRANCH  10  11
ENDBRANCH   3   9
BRANCH   5  17
ATOM     17  O   UNL     1      42.422  25.056 194.116  0.00  0.00    +0.000 OA
ATOM     18  C   UNL     1      41.510  25.328 193.063  0.00  0.00    +0.000 C 
ENDBRANCH   5  17
TORSDOF 4
ENDMDL
