MODEL 1
REMARK VINA RESULT:    -7.087      0.000      0.000
REMARK INTER + INTRA:           8.811
REMARK INTER:                  -7.712
REMARK INTRA:                  16.523
REMARK UNBOUND:                16.520
REMARK  Name = 
REMARK  2 active torsions:
REMARK  status: ('A' for Active; 'I' for Inactive)
REMARK    1  A    between atoms: C_4  and  C_7
REMARK    2  A    between atoms: C_12  and  O_18
REMARK                            x       y       z     vdW  Elec       q    Type
REMARK                         _______ _______ _______ _____ _____    ______ ____
ROOT
ATOM      1  C   UNL     1      53.430  29.458 195.938  0.00  0.00    +0.000 A 
ATOM      2  C   UNL     1      54.710  29.581 196.588  0.00  0.00    +0.000 A 
ATOM      3  C   UNL     1      54.799  29.507 198.023  0.00  0.00    +0.000 A 
ATOM      4  O   UNL     1      55.928  29.615 198.596  0.00  0.00    +0.000 OA
ATOM      5  C   UNL     1      53.542  29.298 198.853  0.00  0.00    +0.000 A 
ATOM      6  C   UNL     1      53.342  30.067 199.987  0.00  0.00    +0.000 A 
ATOM      7  C   UNL     1      52.306  29.591 200.826  0.00  0.00    +0.000 A 
ATOM      8  C   UNL     1      51.367  28.743 200.450  0.00  0.00    +0.000 A 
ATOM      9  C   UNL     1      51.593  28.063 199.285  0.00  0.00    +0.000 A 
ATOM     10  C   UNL     1      52.657  28.382 198.476  0.00  0.00    +0.000 A 
ATOM     11  O   UNL     1      53.347  29.528 194.597  0.00  0.00    +0.000 OA
ENDROOT
BRANCH   1  15
ATOM     12  C   UNL     1      49.772  28.901 198.071  0.00  0.00    +0.000 A 
ATOM     13  C   UNL     1      50.339  27.813 197.428  0.00  0.00    +0.000 A 
ATOM     14  C   UNL     1      51.647  28.051 196.944  0.00  0.00    +0.000 A 
ATOM     15  C   UNL     1      52.174  29.249 196.768  0.00  0.00    +0.000 A 
ATOM     16  C   UNL     1      51.528  30.292 197.372  0.00  0.00    +0.000 A 
ATOM     17  C   UNL     1      50.309  30.112 197.980  0.00  0.00    +0.000 A 
ENDBRANCH   1  15
BRANCH   6  18
ATOM     18  O   UNL     1      54.107  31.227 200.282  0.00  0.00    +0.000 OA
ATOM     19  H   UNL     1      55.017  31.340 199.884  0.00  0.00    +0.000 HD
ENDBRANCH   6  18
TORSDOF 2
ENDMDL
MODEL 2
REMARK VINA RESULT:    -6.921     11.159     13.770
REMARK INTER + INTRA:           8.992
REMARK INTER:                  -7.557
REMARK INTRA:                  16.549
REMARK UNBOUND:                16.520
REMARK  Name = 
REMARK  2 active torsions:
REMARK  status: ('A' for Active; 'I' for Inactive)
REMARK    1  A    between atoms: C_4  and  C_7
REMARK    2  A    between atoms: C_12  and  O_18
REMARK                            x       y       z     vdW  Elec       q    Type
REMARK                         _______ _______ _______ _____ _____    ______ ____
ROOT
ATOM      1  C   UNL     1      41.498  24.520 192.757  0.00  0.00    +0.000 A 
ATOM      2  C   UNL     1      40.262  23.784 192.816  0.00  0.00    +0.000 A 
ATOM      3  C   UNL     1      40.267  22.400 193.216  0.00  0.00    +0.000 A 
ATOM      4  O   UNL     1      39.175  21.751 193.269  0.00  0.00    +0.000 OA
ATOM      5  C   UNL     1      41.576  21.718 193.577  0.00  0.00    +0.000 A 
ATOM      6  C   UNL     1      41.841  20.452 193.081  0.00  0.00    +0.000 A 
ATOM      7  C   UNL     1      42.933  19.808 193.710  0.00  0.00    +0.000 A 
ATOM      8  C   UNL     1      43.855  20.424 194.427  0.00  0.00    +0.000 A 
ATOM      9  C   UNL     1      43.561  21.697 194.829  0.00  0.00    +0.000 A 
ATOM     10  C   UNL     1      42.444  22.346 194.362  0.00  0.00    +0.000 A 
ATOM     11  O   UNL     1      41.493  25.812 192.383  0.00  0.00    +0.000 OA
ENDROOT
BRANCH   1  15
ATOM     12  C   UNL     1      45.292  22.794 193.690  0.00  0.00    +0.000 A 
ATOM     13  C   UNL     1      44.705  23.649 194.610  0.00  0.00    +0.000 A 
ATOM     14  C   UNL     1      43.366  23.987 194.305  0.00  0.00    +0.000 A 
ATOM     15  C   UNL     1      42.807  23.838 193.118  0.00  0.00    +0.000 A 
ATOM     16  C   UNL     1      43.470  23.036 192.230  0.00  0.00    +0.000 A 
ATOM     17  C   UNL     1      44.728  22.560 192.511  0.00  0.00    +0.000 A 
ENDBRANCH   1  15
BRANCH   6  18
ATOM     18  O   UNL     1      41.085  19.854 192.038  0.00  0.00    +0.000 OA
ATOM     19  H   UNL     1      40.094  19.980 192.004  0.00  0.00    +0.000 HD
ENDBRANCH   6  18
TORSDOF 2
ENDMDL
MODEL 3
REMARK VINA RESULT:    -6.751     11.969     14.395
REMARK INTER + INTRA:           9.177
REMARK INTER:                  -7.369
REMARK INTRA:                  16.546
REMARK UNBOUND:                16.520
REMARK  Name = 
REMARK  2 active torsions:
REMARK  status: ('A' for Active; 'I' for Inactive)
REMARK    1  A    between atoms: C_4  and  C_7
REMARK    2  A    between atoms: C_12  and  O_18
REMARK                            x       y       z     vdW  Elec       q    Type
REMARK                         _______ _______ _______ _____ _____    ______ ____
ROOT
ATOM      1  C   UNL     1      43.820  22.725 193.164  0.00  0.00    +0.000 A 
ATOM      2  C   UNL     1      43.434  23.936 193.841  0.00  0.00    +0.000 A 
ATOM      3  C   UNL     1      42.040  24.252 194.014  0.00  0.00    +0.000 A 
ATOM      4  O   UNL     1      41.700  25.321 194.612  0.00  0.00    +0.000 OA
ATOM      5  C   UNL     1      40.975  23.307 193.482  0.00  0.00    +0.000 A 
ATOM      6  C   UNL     1      39.892  23.824 192.790  0.00  0.00    +0.000 A 
ATOM      7  C   UNL     1      38.837  22.900 192.604  0.00  0.00    +0.000 A 
ATOM      8  C   UNL     1      38.957  21.591 192.725  0.00  0.00    +0.000 A 
ATOM      9  C   UNL     1      40.082  21.140 193.358  0.00  0.00    +0.000 A 
ATOM     10  C   UNL     1      41.100  22.001 193.689  0.00  0.00    +0.000 A 
ATOM     11  O   UNL     1      45.122  22.431 193.001  0.00  0.00    +0.000 OA
ENDROOT
BRANCH   1  15
ATOM     12  C   UNL     1      41.000  19.945 191.564  0.00  0.00    +0.000 A 
ATOM     13  C   UNL     1      41.634  19.637 192.756  0.00  0.00    +0.000 A 
ATOM     14  C   UNL     1      42.374  20.710 193.306  0.00  0.00    +0.000 A 
ATOM     15  C   UNL     1      42.755  21.780 192.631  0.00  0.00    +0.000 A 
ATOM     16  C   UNL     1      42.140  21.992 191.429  0.00  0.00    +0.000 A 
ATOM     17  C   UNL     1      41.301  21.047 190.888  0.00  0.00    +0.000 A 
ENDBRANCH   1  15
BRANCH   6  18
ATOM     18  O   UNL     1      39.844  25.160 192.312  0.00  0.00    +0.000 OA
ATOM     19  H   UNL     1      40.636  25.551 191.841  0.00  0.00    +0.000 HD
ENDBRANCH   6  18
TORSDOF 2
ENDMDL
MODEL 4
REMARK VINA RESULT:    -6.744      1.931      4.030
REMARK INTER + INTRA:           9.184
REMARK INTER:                  -7.373
REMARK INTRA:                  16.557
REMARK UNBOUND:                16.520
REMARK  Name = 
REMARK  2 active torsions:
REMARK  status: ('A' for Active; 'I' for Inactive)
REMARK    1  A    between atoms: C_4  and  C_7
REMARK    2  A    between atoms: C_12  and  O_18
REMARK                            x       y       z     vdW  Elec       q    Type
REMARK                         _______ _______ _______ _____ _____    ______ ____
ROOT
ATOM      1  C   UNL     1      51.397  29.332 197.787  0.00  0.00    +0.000 A 
ATOM      2  C   UNL     1      51.797  28.417 196.749  0.00  0.00    +0.000 A 
ATOM      3  C   UNL     1      53.189  28.282 196.405  0.00  0.00    +0.000 A 
ATOM      4  O   UNL     1      53.541  27.474 195.489  0.00  0.00    +0.000 OA
ATOM      5  C   UNL     1      54.236  29.105 197.138  0.00  0.00    +0.000 A 
ATOM      6  C   UNL     1      55.234  29.734 196.414  0.00  0.00    +0.000 A 
ATOM      7  C   UNL     1      56.302  30.216 197.209  0.00  0.00    +0.000 A 
ATOM      8  C   UNL     1      56.240  30.402 198.514  0.00  0.00    +0.000 A 
ATOM      9  C   UNL     1      55.192  29.810 199.163  0.00  0.00    +0.000 A 
ATOM     10  C   UNL     1      54.177  29.205 198.461  0.00  0.00    +0.000 A 
ATOM     11  O   UNL     1      50.097  29.458 198.108  0.00  0.00    +0.000 OA
ENDROOT
BRANCH   1  15
ATOM     12  C   UNL     1      54.163  31.761 199.952  0.00  0.00    +0.000 A 
ATOM     13  C   UNL     1      53.643  30.635 200.569  0.00  0.00    +0.000 A 
ATOM     14  C   UNL     1      52.917  29.789 199.698  0.00  0.00    +0.000 A 
ATOM     15  C   UNL     1      52.444  30.154 198.520  0.00  0.00    +0.000 A 
ATOM     16  C   UNL     1      52.948  31.312 197.995  0.00  0.00    +0.000 A 
ATOM     17  C   UNL     1      53.769  32.126 198.738  0.00  0.00    +0.000 A 
ENDBRANCH   1  15
BRANCH   6  18
ATOM     18  O   UNL     1      55.192  29.882 195.002  0.00  0.00    +0.000 OA
ATOM     19  H   UNL     1      54.952  29.101 194.425  0.00  0.00    +0.000 HD
ENDBRANCH   6  18
TORSDOF 2
ENDMDL
MODEL 5
REMARK VINA RESULT:    -6.732      1.869      2.483
REMARK INTER + INTRA:           9.197
REMARK INTER:                  -7.325
REMARK INTRA:                  16.522
REMARK UNBOUND:                16.520
REMARK  Name = 
REMARK  2 active torsions:
REMARK  status: ('A' for Active; 'I' for Inactive)
REMARK    1  A    between atoms: C_4  and  C_7
REMARK    2  A    between atoms: C_12  and  O_18
REMARK                            x       y       z     vdW  Elec       q    Type
REMARK                         _______ _______ _______ _____ _____    ______ ____
ROOT
ATOM      1  C   UNL     1      55.284  28.310 195.830  0.00  0.00    +0.000 A 
ATOM      2  C   UNL     1      56.311  29.296 196.046  0.00  0.00    +0.000 A 
ATOM      3  C   UNL     1      56.051  30.434 196.890  0.00  0.00    +0.000 A 
ATOM      4  O   UNL     1      56.958  31.304 197.080  0.00  0.00    +0.000 OA
ATOM      5  C   UNL     1      54.693  30.593 197.554  0.00  0.00    +0.000 A 
ATOM      6  C   UNL     1      54.070  31.829 197.537  0.00  0.00    +0.000 A 
ATOM      7  C   UNL     1      52.971  31.929 198.423  0.00  0.00    +0.000 A 
ATOM      8  C   UNL     1      52.340  30.897 198.954  0.00  0.00    +0.000 A 
ATOM      9  C   UNL     1      52.979  29.691 198.879  0.00  0.00    +0.000 A 
ATOM     10  C   UNL     1      54.127  29.544 198.140  0.00  0.00    +0.000 A 
ATOM     11  O   UNL     1      55.527  27.248 195.041  0.00  0.00    +0.000 OA
ENDROOT
BRANCH   1  15
ATOM     12  C   UNL     1      51.391  28.574 197.566  0.00  0.00    +0.000 A 
ATOM     13  C   UNL     1      52.300  27.678 198.105  0.00  0.00    +0.000 A 
ATOM     14  C   UNL     1      53.615  27.826 197.605  0.00  0.00    +0.000 A 
ATOM     15  C   UNL     1      53.926  28.469 196.494  0.00  0.00    +0.000 A 
ATOM     16  C   UNL     1      52.961  29.285 195.974  0.00  0.00    +0.000 A 
ATOM     17  C   UNL     1      51.689  29.294 196.491  0.00  0.00    +0.000 A 
ENDBRANCH   1  15
BRANCH   6  18
ATOM     18  O   UNL     1      54.494  32.900 196.706  0.00  0.00    +0.000 OA
ATOM     19  H   UNL     1      54.423  33.843 197.032  0.00  0.00    +0.000 HD
ENDBRANCH   6  18
TORSDOF 2
ENDMDL
MODEL 6
REMARK VINA RESULT:    -6.724     11.290     13.407
REMARK INTER + INTRA:           9.206
REMARK INTER:                  -7.327
REMARK INTRA:                  16.533
REMARK UNBOUND:                16.520
REMARK  Name = 
REMARK  2 active torsions:
REMARK  status: ('A' for Active; 'I' for Inactive)
REMARK    1  A    between atoms: C_4  and  C_7
REMARK    2  A    between atoms: C_12  and  O_18
REMARK                            x       y       z     vdW  Elec       q    Type
REMARK                         _______ _______ _______ _____ _____    ______ ____
ROOT
ATOM      1  C   UNL     1      45.368  21.677 194.057  0.00  0.00    +0.000 A 
ATOM      2  C   UNL     1      45.679  22.426 192.867  0.00  0.00    +0.000 A 
ATOM      3  C   UNL     1      44.618  22.884 192.007  0.00  0.00    +0.000 A 
ATOM      4  O   UNL     1      44.894  23.546 190.957  0.00  0.00    +0.000 OA
ATOM      5  C   UNL     1      43.171  22.578 192.356  0.00  0.00    +0.000 A 
ATOM      6  C   UNL     1      42.315  22.128 191.365  0.00  0.00    +0.000 A 
ATOM      7  C   UNL     1      40.948  22.159 191.732  0.00  0.00    +0.000 A 
ATOM      8  C   UNL     1      40.507  22.244 192.973  0.00  0.00    +0.000 A 
ATOM      9  C   UNL     1      41.419  22.629 193.917  0.00  0.00    +0.000 A 
ATOM     10  C   UNL     1      42.751  22.748 193.605  0.00  0.00    +0.000 A 
ATOM     11  O   UNL     1      46.358  21.248 194.860  0.00  0.00    +0.000 OA
ENDROOT
BRANCH   1  15
ATOM     12  C   UNL     1      41.379  20.676 195.211  0.00  0.00    +0.000 A 
ATOM     13  C   UNL     1      42.028  21.699 195.882  0.00  0.00    +0.000 A 
ATOM     14  C   UNL     1      43.248  22.094 195.283  0.00  0.00    +0.000 A 
ATOM     15  C   UNL     1      43.920  21.371 194.406  0.00  0.00    +0.000 A 
ATOM     16  C   UNL     1      43.244  20.332 193.828  0.00  0.00    +0.000 A 
ATOM     17  C   UNL     1      41.995  19.969 194.271  0.00  0.00    +0.000 A 
ENDBRANCH   1  15
BRANCH   6  18
ATOM     18  O   UNL     1      42.766  21.677 190.096  0.00  0.00    +0.000 OA
ATOM     19  H   UNL     1      42.505  22.174 189.268  0.00  0.00    +0.000 HD
ENDBRANCH   6  18
TORSDOF 2
ENDMDL
MODEL 7
REMARK VINA RESULT:    -6.618     12.036     14.541
REMARK INTER + INTRA:           9.322
REMARK INTER:                  -7.205
REMARK INTRA:                  16.527
REMARK UNBOUND:                16.520
REMARK  Name = 
REMARK  2 active torsions:
REMARK  status: ('A' for Active; 'I' for Inactive)
REMARK    1  A    between atoms: C_4  and  C_7
REMARK    2  A    between atoms: C_12  and  O_18
REMARK                            x       y       z     vdW  Elec       q    Type
REMARK                         _______ _______ _______ _____ _____    ______ ____
ROOT
ATOM      1  C   UNL     1      42.792  19.765 193.824  0.00  0.00    +0.000 A 
ATOM      2  C   UNL     1      41.631  19.255 193.141  0.00  0.00    +0.000 A 
ATOM      3  C   UNL     1      40.710  20.164 192.510  0.00  0.00    +0.000 A 
ATOM      4  O   UNL     1      39.686  19.714 191.906  0.00  0.00    +0.000 OA
ATOM      5  C   UNL     1      40.962  21.662 192.565  0.00  0.00    +0.000 A 
ATOM      6  C   UNL     1      39.915  22.517 192.864  0.00  0.00    +0.000 A 
ATOM      7  C   UNL     1      40.194  23.879 192.601  0.00  0.00    +0.000 A 
ATOM      8  C   UNL     1      41.405  24.378 192.440  0.00  0.00    +0.000 A 
ATOM      9  C   UNL     1      42.409  23.477 192.214  0.00  0.00    +0.000 A 
ATOM     10  C   UNL     1      42.183  22.126 192.324  0.00  0.00    +0.000 A 
ATOM     11  O   UNL     1      43.652  18.915 194.414  0.00  0.00    +0.000 OA
ENDROOT
BRANCH   1  15
ATOM     12  C   UNL     1      43.679  23.931 194.131  0.00  0.00    +0.000 A 
ATOM     13  C   UNL     1      44.400  23.163 193.232  0.00  0.00    +0.000 A 
ATOM     14  C   UNL     1      43.884  21.858 193.051  0.00  0.00    +0.000 A 
ATOM     15  C   UNL     1      43.044  21.263 193.879  0.00  0.00    +0.000 A 
ATOM     16  C   UNL     1      42.414  22.066 194.788  0.00  0.00    +0.000 A 
ATOM     17  C   UNL     1      42.772  23.385 194.933  0.00  0.00    +0.000 A 
ENDBRANCH   1  15
BRANCH   6  18
ATOM     18  O   UNL     1      38.673  22.068 193.387  0.00  0.00    +0.000 OA
ATOM     19  H   UNL     1      37.957  21.746 192.767  0.00  0.00    +0.000 HD
ENDBRANCH   6  18
TORSDOF 2
ENDMDL
MODEL 8
REMARK VINA RESULT:    -6.549      1.525      3.704
REMARK INTER + INTRA:           9.396
REMARK INTER:                  -7.123
REMARK INTRA:                  16.520
REMARK UNBOUND:                16.520
REMARK  Name = 
REMARK  2 active torsions:
REMARK  status: ('A' for Active; 'I' for Inactive)
REMARK    1  A    between atoms: C_4  and  C_7
REMARK    2  A    between atoms: C_12  and  O_18
REMARK                            x       y       z     vdW  Elec       q    Type
REMARK                         _______ _______ _______ _____ _____    ______ ____
ROOT
ATOM      1  C   UNL     1      52.527  29.565 200.846  0.00  0.00    +0.000 A 
ATOM      2  C   UNL     1      53.681  30.378 201.133  0.00  0.00    +0.000 A 
ATOM      3  C   UNL     1      54.536  30.818 200.061  0.00  0.00    +0.000 A 
ATOM      4  O   UNL     1      55.554  31.536 200.314  0.00  0.00    +0.000 OA
ATOM      5  C   UNL     1      54.222  30.424 198.627  0.00  0.00    +0.000 A 
ATOM      6  C   UNL     1      55.243  29.972 197.807  0.00  0.00    +0.000 A 
ATOM      7  C   UNL     1      54.895  29.918 196.436  0.00  0.00    +0.000 A 
ATOM      8  C   UNL     1      53.658  29.928 195.976  0.00  0.00    +0.000 A 
ATOM      9  C   UNL     1      52.686  30.319 196.855  0.00  0.00    +0.000 A 
ATOM     10  C   UNL     1      52.973  30.519 198.184  0.00  0.00    +0.000 A 
ATOM     11  O   UNL     1      51.729  29.153 201.847  0.00  0.00    +0.000 OA
ENDROOT
BRANCH   1  15
ATOM     12  C   UNL     1      51.478  28.310 196.900  0.00  0.00    +0.000 A 
ATOM     13  C   UNL     1      50.743  29.323 197.494  0.00  0.00    +0.000 A 
ATOM     14  C   UNL     1      51.304  29.809 198.698  0.00  0.00    +0.000 A 
ATOM     15  C   UNL     1      52.213  29.170 199.412  0.00  0.00    +0.000 A 
ATOM     16  C   UNL     1      52.856  28.135 198.792  0.00  0.00    +0.000 A 
ATOM     17  C   UNL     1      52.449  27.688 197.558  0.00  0.00    +0.000 A 
ENDBRANCH   1  15
BRANCH   6  18
ATOM     18  O   UNL     1      56.523  29.599 198.297  0.00  0.00    +0.000 OA
ATOM     19  H   UNL     1      57.348  29.917 197.830  0.00  0.00    +0.000 HD
ENDBRANCH   6  18
TORSDOF 2
ENDMDL
MODEL 9
REMARK VINA RESULT:    -6.539      1.265      3.675
REMARK INTER + INTRA:           9.408
REMARK INTER:                  -7.133
REMARK INTRA:                  16.540
REMARK UNBOUND:                16.520
REMARK  Name = 
REMARK  2 active torsions:
REMARK  status: ('A' for Active; 'I' for Inactive)
REMARK    1  A    between atoms: C_4  and  C_7
REMARK    2  A    between atoms: C_12  and  O_18
REMARK                            x       y       z     vdW  Elec       q    Type
REMARK                         _______ _______ _______ _____ _____    ______ ____
ROOT
ATOM      1  C   UNL     1      55.525  29.912 198.851  0.00  0.00    +0.000 A 
ATOM      2  C   UNL     1      55.644  30.288 197.466  0.00  0.00    +0.000 A 
ATOM      3  C   UNL     1      54.537  30.085 196.567  0.00  0.00    +0.000 A 
ATOM      4  O   UNL     1      54.642  30.418 195.345  0.00  0.00    +0.000 OA
ATOM      5  C   UNL     1      53.244  29.474 197.080  0.00  0.00    +0.000 A 
ATOM      6  C   UNL     1      52.622  28.482 196.342  0.00  0.00    +0.000 A 
ATOM      7  C   UNL     1      51.298  28.203 196.758  0.00  0.00    +0.000 A 
ATOM      8  C   UNL     1      50.792  28.547 197.927  0.00  0.00    +0.000 A 
ATOM      9  C   UNL     1      51.489  29.483 198.640  0.00  0.00    +0.000 A 
ATOM     10  C   UNL     1      52.731  29.903 198.228  0.00  0.00    +0.000 A 
ATOM     11  O   UNL     1      56.560  30.100 199.690  0.00  0.00    +0.000 OA
ENDROOT
BRANCH   1  15
ATOM     12  C   UNL     1      52.001  28.150 200.498  0.00  0.00    +0.000 A 
ATOM     13  C   UNL     1      52.263  29.484 200.762  0.00  0.00    +0.000 A 
ATOM     14  C   UNL     1      53.325  30.022 199.997  0.00  0.00    +0.000 A 
ATOM     15  C   UNL     1      54.232  29.300 199.364  0.00  0.00    +0.000 A 
ATOM     16  C   UNL     1      53.945  27.975 199.194  0.00  0.00    +0.000 A 
ATOM     17  C   UNL     1      52.852  27.405 199.803  0.00  0.00    +0.000 A 
ENDBRANCH   1  15
BRANCH   6  18
ATOM     18  O   UNL     1      53.253  27.806 195.264  0.00  0.00    +0.000 OA
ATOM     19  H   UNL     1      52.702  27.426 194.521  0.00  0.00    +0.000 HD
ENDBRANCH   6  18
TORSDOF 2
ENDMDL
