MODEL 1
REMARK VINA RESULT:    -6.632      0.000      0.000
REMARK INTER + INTRA:          -9.603
REMARK INTER:                  -8.977
REMARK INTRA:                  -0.626
REMARK UNBOUND:                -0.644
REMARK  Name = 
REMARK  9 active torsions:
REMARK  status: ('A' for Active; 'I' for Inactive)
REMARK    1  A    between atoms: C_1  and  O_2
REMARK    2  A    between atoms: O_2  and  C_3
REMARK    3  A    between atoms: C_6  and  C_7
REMARK    4  A    between atoms: C_7  and  C_9
REMARK    5  A    between atoms: C_10  and  C_11
REMARK    6  A    between atoms: C_17  and  O_18
REMARK    7  A    between atoms: O_18  and  C_19
REMARK    8  A    between atoms: C_20  and  O_21
REMARK    9  A    between atoms: O_21  and  C_22
REMARK                            x       y       z     vdW  Elec       q    Type
REMARK                         _______ _______ _______ _____ _____    ______ ____
ROOT
ATOM      1  C   UNL     1      56.432  33.621 201.660  0.00  0.00    +0.000 A 
ATOM      2  C   UNL     1      55.238  34.182 201.236  0.00  0.00    +0.000 A 
ATOM      3  C   UNL     1      54.580  33.437 200.230  0.00  0.00    +0.000 A 
ATOM      4  C   UNL     1      55.157  32.512 199.483  0.00  0.00    +0.000 A 
ATOM      5  C   UNL     1      56.367  32.047 199.920  0.00  0.00    +0.000 A 
ATOM      6  C   UNL     1      57.012  32.639 200.979  0.00  0.00    +0.000 A 
ENDROOT
BRANCH   1   8
ATOM      7  C   UNL     1      57.753  35.429 202.675  0.00  0.00    +0.000 C 
ATOM      8  O   UNL     1      57.194  34.126 202.746  0.00  0.00    +0.000 OA
ENDBRANCH   1   8
BRANCH   4   9
ATOM      9  C   UNL     1      54.511  31.992 198.209  0.00  0.00    +0.000 C 
ATOM     10  O   UNL     1      55.116  32.107 197.097  0.00  0.00    +0.000 OA
BRANCH   9  11
ATOM     11  C   UNL     1      53.141  31.337 198.265  0.00  0.00    +0.000 C 
ATOM     12  C   UNL     1      52.955  30.210 199.006  0.00  0.00    +0.000 C 
BRANCH  12  13
ATOM     13  C   UNL     1      51.585  29.554 199.061  0.00  0.00    +0.000 A 
ATOM     14  C   UNL     1      50.744  29.649 197.964  0.00  0.00    +0.000 A 
ATOM     15  C   UNL     1      49.408  29.265 198.231  0.00  0.00    +0.000 A 
ATOM     16  C   UNL     1      49.030  28.547 199.273  0.00  0.00    +0.000 A 
ATOM     17  C   UNL     1      49.932  28.435 200.294  0.00  0.00    +0.000 A 
ATOM     18  C   UNL     1      51.217  28.903 200.157  0.00  0.00    +0.000 A 
ENDBRANCH  12  13
ENDBRANCH   9  11
ENDBRANCH   4   9
BRANCH   5  19
ATOM     19  O   UNL     1      56.966  30.937 199.268  0.00  0.00    +0.000 OA
ATOM     20  C   UNL     1      56.605  29.616 199.641  0.00  0.00    +0.000 C 
ENDBRANCH   5  19
BRANCH   6  21
ATOM     21  O   UNL     1      58.309  32.198 201.349  0.00  0.00    +0.000 OA
ATOM     22  C   UNL     1      58.461  31.193 202.340  0.00  0.00    +0.000 C 
ENDBRANCH   6  21
TORSDOF 6
ENDMDL
MODEL 2
REMARK VINA RESULT:    -6.544      2.575      7.141
REMARK INTER + INTRA:          -9.484
REMARK INTER:                  -8.936
REMARK INTRA:                  -0.547
REMARK UNBOUND:                -0.644
REMARK  Name = 
REMARK  9 active torsions:
REMARK  status: ('A' for Active; 'I' for Inactive)
REMARK    1  A    between atoms: C_1  and  O_2
REMARK    2  A    between atoms: O_2  and  C_3
REMARK    3  A    between atoms: C_6  and  C_7
REMARK    4  A    between atoms: C_7  and  C_9
REMARK    5  A    between atoms: C_10  and  C_11
REMARK    6  A    between atoms: C_17  and  O_18
REMARK    7  A    between atoms: O_18  and  C_19
REMARK    8  A    between atoms: C_20  and  O_21
REMARK    9  A    between atoms: O_21  and  C_22
REMARK                            x       y       z     vdW  Elec       q    Type
REMARK                         _______ _______ _______ _____ _____    ______ ____
ROOT
ATOM      1  C   UNL     1      49.898  29.274 198.644  0.00  0.00    +0.000 A 
ATOM      2  C   UNL     1      49.916  30.228 197.638  0.00  0.00    +0.000 A 
ATOM      3  C   UNL     1      51.213  30.684 197.305  0.00  0.00    +0.000 A 
ATOM      4  C   UNL     1      52.279  30.535 198.070  0.00  0.00    +0.000 A 
ATOM      5  C   UNL     1      52.175  29.628 199.087  0.00  0.00    +0.000 A 
ATOM      6  C   UNL     1      50.970  29.040 199.390  0.00  0.00    +0.000 A 
ENDROOT
BRANCH   1   8
ATOM      7  C   UNL     1      48.257  27.476 198.295  0.00  0.00    +0.000 C 
ATOM      8  O   UNL     1      48.725  28.584 199.049  0.00  0.00    +0.000 OA
ENDBRANCH   1   8
BRANCH   4   9
ATOM      9  C   UNL     1      53.553  31.329 197.831  0.00  0.00    +0.000 C 
ATOM     10  O   UNL     1      54.199  31.183 196.746  0.00  0.00    +0.000 OA
BRANCH   9  11
ATOM     11  C   UNL     1      54.055  32.297 198.890  0.00  0.00    +0.000 C 
ATOM     12  C   UNL     1      55.309  32.157 199.400  0.00  0.00    +0.000 C 
BRANCH  12  13
ATOM     13  C   UNL     1      55.810  33.125 200.460  0.00  0.00    +0.000 A 
ATOM     14  C   UNL     1      57.169  33.376 200.560  0.00  0.00    +0.000 A 
ATOM     15  C   UNL     1      57.541  34.050 201.747  0.00  0.00    +0.000 A 
ATOM     16  C   UNL     1      56.705  34.710 202.528  0.00  0.00    +0.000 A 
ATOM     17  C   UNL     1      55.374  34.469 202.333  0.00  0.00    +0.000 A 
ATOM     18  C   UNL     1      54.939  33.713 201.271  0.00  0.00    +0.000 A 
ENDBRANCH  12  13
ENDBRANCH   9  11
ENDBRANCH   4   9
BRANCH   5  19
ATOM     19  O   UNL     1      53.328  29.288 199.843  0.00  0.00    +0.000 OA
ATOM     20  C   UNL     1      54.086  28.136 199.502  0.00  0.00    +0.000 C 
ENDBRANCH   5  19
BRANCH   6  21
ATOM     21  O   UNL     1      50.871  28.176 200.512  0.00  0.00    +0.000 OA
ATOM     22  C   UNL     1      50.863  28.714 201.825  0.00  0.00    +0.000 C 
ENDBRANCH   6  21
TORSDOF 6
ENDMDL
MODEL 3
REMARK VINA RESULT:    -6.424     15.721     20.857
REMARK INTER + INTRA:          -9.321
REMARK INTER:                  -8.892
REMARK INTRA:                  -0.429
REMARK UNBOUND:                -0.644
REMARK  Name = 
REMARK  9 active torsions:
REMARK  status: ('A' for Active; 'I' for Inactive)
REMARK    1  A    between atoms: C_1  and  O_2
REMARK    2  A    between atoms: O_2  and  C_3
REMARK    3  A    between atoms: C_6  and  C_7
REMARK    4  A    between atoms: C_7  and  C_9
REMARK    5  A    between atoms: C_10  and  C_11
REMARK    6  A    between atoms: C_17  and  O_18
REMARK    7  A    between atoms: O_18  and  C_19
REMARK    8  A    between atoms: C_20  and  O_21
REMARK    9  A    between atoms: O_21  and  C_22
REMARK                            x       y       z     vdW  Elec       q    Type
REMARK                         _______ _______ _______ _____ _____    ______ ____
ROOT
ATOM      1  C   UNL     1      38.492  17.932 190.215  0.00  0.00    +0.000 A 
ATOM      2  C   UNL     1      39.727  18.039 189.594  0.00  0.00    +0.000 A 
ATOM      3  C   UNL     1      40.530  19.091 190.095  0.00  0.00    +0.000 A 
ATOM      4  C   UNL     1      40.077  20.108 190.805  0.00  0.00    +0.000 A 
ATOM      5  C   UNL     1      38.823  19.969 191.334  0.00  0.00    +0.000 A 
ATOM      6  C   UNL     1      38.028  18.901 190.996  0.00  0.00    +0.000 A 
ENDROOT
BRANCH   1   8
ATOM      7  C   UNL     1      36.903  16.801 188.719  0.00  0.00    +0.000 C 
ATOM      8  O   UNL     1      37.577  16.875 189.966  0.00  0.00    +0.000 OA
ENDBRANCH   1   8
BRANCH   4   9
ATOM      9  C   UNL     1      40.903  21.365 191.022  0.00  0.00    +0.000 C 
ATOM     10  O   UNL     1      40.433  22.499 190.694  0.00  0.00    +0.000 OA
BRANCH   9  11
ATOM     11  C   UNL     1      42.292  21.265 191.630  0.00  0.00    +0.000 C 
ATOM     12  C   UNL     1      42.566  21.888 192.809  0.00  0.00    +0.000 C 
BRANCH  12  13
ATOM     13  C   UNL     1      43.956  21.787 193.417  0.00  0.00    +0.000 A 
ATOM     14  C   UNL     1      44.888  22.774 193.141  0.00  0.00    +0.000 A 
ATOM     15  C   UNL     1      46.211  22.432 193.511  0.00  0.00    +0.000 A 
ATOM     16  C   UNL     1      46.526  21.464 194.352  0.00  0.00    +0.000 A 
ATOM     17  C   UNL     1      45.541  20.560 194.636  0.00  0.00    +0.000 A 
ATOM     18  C   UNL     1      44.253  20.757 194.200  0.00  0.00    +0.000 A 
ENDBRANCH  12  13
ENDBRANCH   9  11
ENDBRANCH   4   9
BRANCH   5  19
ATOM     19  O   UNL     1      38.337  20.942 192.247  0.00  0.00    +0.000 OA
ATOM     20  C   UNL     1      38.734  20.899 193.609  0.00  0.00    +0.000 C 
ENDBRANCH   5  19
BRANCH   6  21
ATOM     21  O   UNL     1      36.697  18.832 191.485  0.00  0.00    +0.000 OA
ATOM     22  C   UNL     1      36.428  18.191 192.723  0.00  0.00    +0.000 C 
ENDBRANCH   6  21
TORSDOF 6
ENDMDL
MODEL 4
REMARK VINA RESULT:    -6.381     13.766     17.918
REMARK INTER + INTRA:          -9.263
REMARK INTER:                  -8.811
REMARK INTRA:                  -0.452
REMARK UNBOUND:                -0.644
REMARK  Name = 
REMARK  9 active torsions:
REMARK  status: ('A' for Active; 'I' for Inactive)
REMARK    1  A    between atoms: C_1  and  O_2
REMARK    2  A    between atoms: O_2  and  C_3
REMARK    3  A    between atoms: C_6  and  C_7
REMARK    4  A    between atoms: C_7  and  C_9
REMARK    5  A    between atoms: C_10  and  C_11
REMARK    6  A    between atoms: C_17  and  O_18
REMARK    7  A    between atoms: O_18  and  C_19
REMARK    8  A    between atoms: C_20  and  O_21
REMARK    9  A    between atoms: O_21  and  C_22
REMARK                            x       y       z     vdW  Elec       q    Type
REMARK                         _______ _______ _______ _____ _____    ______ ____
ROOT
ATOM      1  C   UNL     1      45.349  22.060 193.372  0.00  0.00    +0.000 A 
ATOM      2  C   UNL     1      45.110  22.846 192.255  0.00  0.00    +0.000 A 
ATOM      3  C   UNL     1      43.748  23.179 192.070  0.00  0.00    +0.000 A 
ATOM      4  C   UNL     1      42.738  22.548 192.640  0.00  0.00    +0.000 A 
ATOM      5  C   UNL     1      43.047  21.734 193.695  0.00  0.00    +0.000 A 
ATOM      6  C   UNL     1      44.354  21.464 194.020  0.00  0.00    +0.000 A 
ENDROOT
BRANCH   1   8
ATOM      7  C   UNL     1      47.447  22.677 194.494  0.00  0.00    +0.000 C 
ATOM      8  O   UNL     1      46.649  21.713 193.824  0.00  0.00    +0.000 OA
ENDBRANCH   1   8
BRANCH   4   9
ATOM      9  C   UNL     1      41.308  22.719 192.152  0.00  0.00    +0.000 C 
ATOM     10  O   UNL     1      40.828  23.884 191.986  0.00  0.00    +0.000 OA
BRANCH   9  11
ATOM     11  C   UNL     1      40.453  21.496 191.863  0.00  0.00    +0.000 C 
ATOM     12  C   UNL     1      40.857  20.587 190.935  0.00  0.00    +0.000 C 
BRANCH  12  13
ATOM     13  C   UNL     1      40.001  19.364 190.646  0.00  0.00    +0.000 A 
ATOM     14  C   UNL     1      38.644  19.408 190.920  0.00  0.00    +0.000 A 
ATOM     15  C   UNL     1      38.012  18.141 190.890  0.00  0.00    +0.000 A 
ATOM     16  C   UNL     1      38.521  17.064 190.319  0.00  0.00    +0.000 A 
ATOM     17  C   UNL     1      39.852  17.110 190.011  0.00  0.00    +0.000 A 
ATOM     18  C   UNL     1      40.567  18.276 190.138  0.00  0.00    +0.000 A 
ENDBRANCH  12  13
ENDBRANCH   9  11
ENDBRANCH   4   9
BRANCH   5  19
ATOM     19  O   UNL     1      42.002  21.159 194.465  0.00  0.00    +0.000 OA
ATOM     20  C   UNL     1      41.704  21.674 195.754  0.00  0.00    +0.000 C 
ENDBRANCH   5  19
BRANCH   6  21
ATOM     21  O   UNL     1      44.645  20.541 195.058  0.00  0.00    +0.000 OA
ATOM     22  C   UNL     1      44.561  19.145 194.811  0.00  0.00    +0.000 C 
ENDBRANCH   6  21
TORSDOF 6
ENDMDL
MODEL 5
REMARK VINA RESULT:    -6.299      1.776      2.476
REMARK INTER + INTRA:          -9.153
REMARK INTER:                  -8.354
REMARK INTRA:                  -0.799
REMARK UNBOUND:                -0.644
REMARK  Name = 
REMARK  9 active torsions:
REMARK  status: ('A' for Active; 'I' for Inactive)
REMARK    1  A    between atoms: C_1  and  O_2
REMARK    2  A    between atoms: O_2  and  C_3
REMARK    3  A    between atoms: C_6  and  C_7
REMARK    4  A    between atoms: C_7  and  C_9
REMARK    5  A    between atoms: C_10  and  C_11
REMARK    6  A    between atoms: C_17  and  O_18
REMARK    7  A    between atoms: O_18  and  C_19
REMARK    8  A    between atoms: C_20  and  O_21
REMARK    9  A    between atoms: O_21  and  C_22
REMARK                            x       y       z     vdW  Elec       q    Type
REMARK                         _______ _______ _______ _____ _____    ______ ____
ROOT
ATOM      1  C   UNL     1      56.954  34.101 201.020  0.00  0.00    +0.000 A 
ATOM      2  C   UNL     1      55.820  34.166 201.814  0.00  0.00    +0.000 A 
ATOM      3  C   UNL     1      55.338  32.903 202.230  0.00  0.00    +0.000 A 
ATOM      4  C   UNL     1      55.663  31.754 201.665  0.00  0.00    +0.000 A 
ATOM      5  C   UNL     1      56.752  31.770 200.838  0.00  0.00    +0.000 A 
ATOM      6  C   UNL     1      57.358  32.953 200.490  0.00  0.00    +0.000 A 
ENDROOT
BRANCH   1   8
ATOM      7  C   UNL     1      58.464  35.973 201.530  0.00  0.00    +0.000 C 
ATOM      8  O   UNL     1      57.682  35.244 200.596  0.00  0.00    +0.000 OA
ENDBRANCH   1   8
BRANCH   4   9
ATOM      9  C   UNL     1      54.869  30.483 201.921  0.00  0.00    +0.000 C 
ATOM     10  O   UNL     1      55.271  29.648 202.791  0.00  0.00    +0.000 OA
BRANCH   9  11
ATOM     11  C   UNL     1      53.596  30.211 201.136  0.00  0.00    +0.000 C 
ATOM     12  C   UNL     1      53.554  30.463 199.800  0.00  0.00    +0.000 C 
BRANCH  12  13
ATOM     13  C   UNL     1      52.280  30.192 199.015  0.00  0.00    +0.000 A 
ATOM     14  C   UNL     1      52.018  30.931 197.873  0.00  0.00    +0.000 A 
ATOM     15  C   UNL     1      50.690  30.801 197.400  0.00  0.00    +0.000 A 
ATOM     16  C   UNL     1      49.864  29.829 197.743  0.00  0.00    +0.000 A 
ATOM     17  C   UNL     1      50.215  29.092 198.839  0.00  0.00    +0.000 A 
ATOM     18  C   UNL     1      51.442  29.253 199.437  0.00  0.00    +0.000 A 
ENDBRANCH  12  13
ENDBRANCH   9  11
ENDBRANCH   4   9
BRANCH   5  19
ATOM     19  O   UNL     1      57.264  30.546 200.331  0.00  0.00    +0.000 OA
ATOM     20  C   UNL     1      58.363  29.917 200.972  0.00  0.00    +0.000 C 
ENDBRANCH   5  19
BRANCH   6  21
ATOM     21  O   UNL     1      58.426  32.948 199.554  0.00  0.00    +0.000 OA
ATOM     22  C   UNL     1      58.150  32.961 198.162  0.00  0.00    +0.000 C 
ENDBRANCH   6  21
TORSDOF 6
ENDMDL
MODEL 6
REMARK VINA RESULT:    -6.189     14.662     19.694
REMARK INTER + INTRA:          -9.004
REMARK INTER:                  -8.283
REMARK INTRA:                  -0.720
REMARK UNBOUND:                -0.644
REMARK  Name = 
REMARK  9 active torsions:
REMARK  status: ('A' for Active; 'I' for Inactive)
REMARK    1  A    between atoms: C_1  and  O_2
REMARK    2  A    between atoms: O_2  and  C_3
REMARK    3  A    between atoms: C_6  and  C_7
REMARK    4  A    between atoms: C_7  and  C_9
REMARK    5  A    between atoms: C_10  and  C_11
REMARK    6  A    between atoms: C_17  and  O_18
REMARK    7  A    between atoms: O_18  and  C_19
REMARK    8  A    between atoms: C_20  and  O_21
REMARK    9  A    between atoms: O_21  and  C_22
REMARK                            x       y       z     vdW  Elec       q    Type
REMARK                         _______ _______ _______ _____ _____    ______ ____
ROOT
ATOM      1  C   UNL     1      39.864  18.270 190.675  0.00  0.00    +0.000 A 
ATOM      2  C   UNL     1      40.282  19.463 190.106  0.00  0.00    +0.000 A 
ATOM      3  C   UNL     1      41.095  20.249 190.956  0.00  0.00    +0.000 A 
ATOM      4  C   UNL     1      41.177  20.097 192.266  0.00  0.00    +0.000 A 
ATOM      5  C   UNL     1      40.685  18.926 192.774  0.00  0.00    +0.000 A 
ATOM      6  C   UNL     1      39.993  18.046 191.978  0.00  0.00    +0.000 A 
ENDROOT
BRANCH   1   8
ATOM      7  C   UNL     1      37.889  17.573 189.387  0.00  0.00    +0.000 C 
ATOM      8  O   UNL     1      39.150  17.270 189.964  0.00  0.00    +0.000 OA
ENDBRANCH   1   8
BRANCH   4   9
ATOM      9  C   UNL     1      41.786  21.165 193.160  0.00  0.00    +0.000 C 
ATOM     10  O   UNL     1      41.035  21.899 193.875  0.00  0.00    +0.000 OA
BRANCH   9  11
ATOM     11  C   UNL     1      43.294  21.354 193.198  0.00  0.00    +0.000 C 
ATOM     12  C   UNL     1      43.961  21.269 194.381  0.00  0.00    +0.000 C 
BRANCH  12  13
ATOM     13  C   UNL     1      45.469  21.459 194.418  0.00  0.00    +0.000 A 
ATOM     14  C   UNL     1      45.987  22.716 194.685  0.00  0.00    +0.000 A 
ATOM     15  C   UNL     1      47.369  22.837 194.407  0.00  0.00    +0.000 A 
ATOM     16  C   UNL     1      48.196  21.817 194.261  0.00  0.00    +0.000 A 
ATOM     17  C   UNL     1      47.621  20.592 194.070  0.00  0.00    +0.000 A 
ATOM     18  C   UNL     1      46.263  20.420 194.195  0.00  0.00    +0.000 A 
ENDBRANCH  12  13
ENDBRANCH   9  11
ENDBRANCH   4   9
BRANCH   5  19
ATOM     19  O   UNL     1      40.891  18.617 194.144  0.00  0.00    +0.000 OA
ATOM     20  C   UNL     1      42.035  17.876 194.540  0.00  0.00    +0.000 C 
ENDBRANCH   5  19
BRANCH   6  21
ATOM     21  O   UNL     1      39.411  16.885 192.552  0.00  0.00    +0.000 OA
ATOM     22  C   UNL     1      38.134  16.963 193.169  0.00  0.00    +0.000 C 
ENDBRANCH   6  21
TORSDOF 6
ENDMDL
MODEL 7
REMARK VINA RESULT:    -6.187     16.305     21.403
REMARK INTER + INTRA:          -9.001
REMARK INTER:                  -8.215
REMARK INTRA:                  -0.787
REMARK UNBOUND:                -0.644
REMARK  Name = 
REMARK  9 active torsions:
REMARK  status: ('A' for Active; 'I' for Inactive)
REMARK    1  A    between atoms: C_1  and  O_2
REMARK    2  A    between atoms: O_2  and  C_3
REMARK    3  A    between atoms: C_6  and  C_7
REMARK    4  A    between atoms: C_7  and  C_9
REMARK    5  A    between atoms: C_10  and  C_11
REMARK    6  A    between atoms: C_17  and  O_18
REMARK    7  A    between atoms: O_18  and  C_19
REMARK    8  A    between atoms: C_20  and  O_21
REMARK    9  A    between atoms: O_21  and  C_22
REMARK                            x       y       z     vdW  Elec       q    Type
REMARK                         _______ _______ _______ _____ _____    ______ ____
ROOT
ATOM      1  C   UNL     1      38.384  17.965 189.941  0.00  0.00    +0.000 A 
ATOM      2  C   UNL     1      39.582  17.267 189.970  0.00  0.00    +0.000 A 
ATOM      3  C   UNL     1      40.180  17.211 191.251  0.00  0.00    +0.000 A 
ATOM      4  C   UNL     1      39.878  18.013 192.255  0.00  0.00    +0.000 A 
ATOM      5  C   UNL     1      38.717  18.726 192.136  0.00  0.00    +0.000 A 
ATOM      6  C   UNL     1      38.006  18.728 190.960  0.00  0.00    +0.000 A 
ENDROOT
BRANCH   1   8
ATOM      7  C   UNL     1      36.765  16.918 188.414  0.00  0.00    +0.000 C 
ATOM      8  O   UNL     1      37.548  18.040 188.795  0.00  0.00    +0.000 OA
ENDBRANCH   1   8
BRANCH   4   9
ATOM      9  C   UNL     1      40.771  18.137 193.479  0.00  0.00    +0.000 C 
ATOM     10  O   UNL     1      40.494  17.489 194.537  0.00  0.00    +0.000 OA
BRANCH   9  11
ATOM     11  C   UNL     1      41.996  19.036 193.437  0.00  0.00    +0.000 C 
ATOM     12  C   UNL     1      41.854  20.369 193.204  0.00  0.00    +0.000 C 
BRANCH  12  13
ATOM     13  C   UNL     1      43.080  21.268 193.161  0.00  0.00    +0.000 A 
ATOM     14  C   UNL     1      43.154  22.267 192.205  0.00  0.00    +0.000 A 
ATOM     15  C   UNL     1      44.442  22.838 192.072  0.00  0.00    +0.000 A 
ATOM     16  C   UNL     1      45.405  22.733 192.970  0.00  0.00    +0.000 A 
ATOM     17  C   UNL     1      45.239  21.773 193.929  0.00  0.00    +0.000 A 
ATOM     18  C   UNL     1      44.057  21.081 194.040  0.00  0.00    +0.000 A 
ENDBRANCH  12  13
ENDBRANCH   9  11
ENDBRANCH   4   9
BRANCH   5  19
ATOM     19  O   UNL     1      38.239  19.477 193.242  0.00  0.00    +0.000 OA
ATOM     20  C   UNL     1      37.255  18.924 194.103  0.00  0.00    +0.000 C 
ENDBRANCH   5  19
BRANCH   6  21
ATOM     21  O   UNL     1      36.858  19.552 190.832  0.00  0.00    +0.000 OA
ATOM     22  C   UNL     1      37.000  20.916 190.463  0.00  0.00    +0.000 C 
ENDBRANCH   6  21
TORSDOF 6
ENDMDL
MODEL 8
REMARK VINA RESULT:    -6.142     13.989     18.741
REMARK INTER + INTRA:          -8.940
REMARK INTER:                  -8.269
REMARK INTRA:                  -0.671
REMARK UNBOUND:                -0.644
REMARK  Name = 
REMARK  9 active torsions:
REMARK  status: ('A' for Active; 'I' for Inactive)
REMARK    1  A    between atoms: C_1  and  O_2
REMARK    2  A    between atoms: O_2  and  C_3
REMARK    3  A    between atoms: C_6  and  C_7
REMARK    4  A    between atoms: C_7  and  C_9
REMARK    5  A    between atoms: C_10  and  C_11
REMARK    6  A    between atoms: C_17  and  O_18
REMARK    7  A    between atoms: O_18  and  C_19
REMARK    8  A    between atoms: C_20  and  O_21
REMARK    9  A    between atoms: O_21  and  C_22
REMARK                            x       y       z     vdW  Elec       q    Type
REMARK                         _______ _______ _______ _____ _____    ______ ____
ROOT
ATOM      1  C   UNL     1      38.772  21.193 191.547  0.00  0.00    +0.000 A 
ATOM      2  C   UNL     1      39.235  22.434 191.137  0.00  0.00    +0.000 A 
ATOM      3  C   UNL     1      40.381  22.878 191.838  0.00  0.00    +0.000 A 
ATOM      4  C   UNL     1      40.786  22.390 192.997  0.00  0.00    +0.000 A 
ATOM      5  C   UNL     1      40.241  21.195 193.378  0.00  0.00    +0.000 A 
ATOM      6  C   UNL     1      39.206  20.633 192.670  0.00  0.00    +0.000 A 
ENDROOT
BRANCH   1   8
ATOM      7  C   UNL     1      36.675  21.219 190.263  0.00  0.00    +0.000 C 
ATOM      8  O   UNL     1      37.717  20.496 190.900  0.00  0.00    +0.000 OA
ENDBRANCH   1   8
BRANCH   4   9
ATOM      9  C   UNL     1      41.804  23.118 193.860  0.00  0.00    +0.000 C 
ATOM     10  O   UNL     1      41.418  23.995 194.695  0.00  0.00    +0.000 OA
BRANCH   9  11
ATOM     11  C   UNL     1      43.283  22.797 193.723  0.00  0.00    +0.000 C 
ATOM     12  C   UNL     1      43.934  22.147 194.725  0.00  0.00    +0.000 C 
BRANCH  12  13
ATOM     13  C   UNL     1      45.414  21.827 194.588  0.00  0.00    +0.000 A 
ATOM     14  C   UNL     1      46.340  22.853 194.679  0.00  0.00    +0.000 A 
ATOM     15  C   UNL     1      47.640  22.491 194.249  0.00  0.00    +0.000 A 
ATOM     16  C   UNL     1      48.066  21.248 194.116  0.00  0.00    +0.000 A 
ATOM     17  C   UNL     1      47.106  20.275 194.101  0.00  0.00    +0.000 A 
ATOM     18  C   UNL     1      45.794  20.571 194.382  0.00  0.00    +0.000 A 
ENDBRANCH  12  13
ENDBRANCH   9  11
ENDBRANCH   4   9
BRANCH   5  19
ATOM     19  O   UNL     1      40.750  20.527 194.522  0.00  0.00    +0.000 OA
ATOM     20  C   UNL     1      41.619  19.415 194.366  0.00  0.00    +0.000 C 
ENDBRANCH   5  19
BRANCH   6  21
ATOM     21  O   UNL     1      38.596  19.441 193.142  0.00  0.00    +0.000 OA
ATOM     22  C   UNL     1      37.516  19.513 194.061  0.00  0.00    +0.000 C 
ENDBRANCH   6  21
TORSDOF 6
ENDMDL
MODEL 9
REMARK VINA RESULT:    -5.936      2.047      7.507
REMARK INTER + INTRA:          -8.662
REMARK INTER:                  -8.017
REMARK INTRA:                  -0.644
REMARK UNBOUND:                -0.644
REMARK  Name = 
REMARK  9 active torsions:
REMARK  status: ('A' for Active; 'I' for Inactive)
REMARK    1  A    between atoms: C_1  and  O_2
REMARK    2  A    between atoms: O_2  and  C_3
REMARK    3  A    between atoms: C_6  and  C_7
REMARK    4  A    between atoms: C_7  and  C_9
REMARK    5  A    between atoms: C_10  and  C_11
REMARK    6  A    between atoms: C_17  and  O_18
REMARK    7  A    between atoms: O_18  and  C_19
REMARK    8  A    between atoms: C_20  and  O_21
REMARK    9  A    between atoms: O_21  and  C_22
REMARK                            x       y       z     vdW  Elec       q    Type
REMARK                         _______ _______ _______ _____ _____    ______ ____
ROOT
ATOM      1  C   UNL     1      52.182  29.786 198.385  0.00  0.00    +0.000 A 
ATOM      2  C   UNL     1      52.408  29.824 199.753  0.00  0.00    +0.000 A 
ATOM      3  C   UNL     1      53.687  30.313 200.109  0.00  0.00    +0.000 A 
ATOM      4  C   UNL     1      54.716  30.390 199.284  0.00  0.00    +0.000 A 
ATOM      5  C   UNL     1      54.436  30.277 197.950  0.00  0.00    +0.000 A 
ATOM      6  C   UNL     1      53.178  29.931 197.519  0.00  0.00    +0.000 A 
ENDROOT
BRANCH   1   8
ATOM      7  C   UNL     1      50.428  28.130 197.910  0.00  0.00    +0.000 C 
ATOM      8  O   UNL     1      50.929  29.454 197.806  0.00  0.00    +0.000 OA
ENDBRANCH   1   8
BRANCH   4   9
ATOM      9  C   UNL     1      56.135  30.595 199.790  0.00  0.00    +0.000 C 
ATOM     10  O   UNL     1      56.872  29.590 200.038  0.00  0.00    +0.000 OA
BRANCH   9  11
ATOM     11  C   UNL     1      56.670  32.002 200.000  0.00  0.00    +0.000 C 
ATOM     12  C   UNL     1      57.238  32.344 201.189  0.00  0.00    +0.000 C 
BRANCH  12  13
ATOM     13  C   UNL     1      57.773  33.751 201.399  0.00  0.00    +0.000 A 
ATOM     14  C   UNL     1      58.246  34.116 202.648  0.00  0.00    +0.000 A 
ATOM     15  C   UNL     1      58.440  35.510 202.802  0.00  0.00    +0.000 A 
ATOM     16  C   UNL     1      58.529  36.369 201.803  0.00  0.00    +0.000 A 
ATOM     17  C   UNL     1      58.110  35.924 200.580  0.00  0.00    +0.000 A 
ATOM     18  C   UNL     1      57.778  34.606 200.383  0.00  0.00    +0.000 A 
ENDBRANCH  12  13
ENDBRANCH   9  11
ENDBRANCH   4   9
BRANCH   5  19
ATOM     19  O   UNL     1      55.460  30.521 196.997  0.00  0.00    +0.000 OA
ATOM     20  C   UNL     1      55.638  31.824 196.463  0.00  0.00    +0.000 C 
ENDBRANCH   5  19
BRANCH   6  21
ATOM     21  O   UNL     1      52.940  29.727 196.134  0.00  0.00    +0.000 OA
ATOM     22  C   UNL     1      53.342  28.514 195.516  0.00  0.00    +0.000 C 
ENDBRANCH   6  21
TORSDOF 6
ENDMDL
