MODEL 1
REMARK VINA RESULT:    -7.018      0.000      0.000
REMARK INTER + INTRA:         -13.602
REMARK INTER:                 -11.086
REMARK INTRA:                  -2.516
REMARK UNBOUND:                -3.097
REMARK  Name = 
REMARK  10 active torsions:
REMARK  status: ('A' for Active; 'I' for Inactive)
REMARK    1  A    between atoms: C_1  and  O_2
REMARK    2  A    between atoms: O_2  and  C_3
REMARK    3  A    between atoms: C_5  and  C_6
REMARK    4  A    between atoms: C_7  and  C_8
REMARK    5  A    between atoms: C_8  and  C_10
REMARK    6  A    between atoms: C_10  and  C_11
REMARK    7  A    between atoms: C_11  and  C_12
REMARK    8  A    between atoms: C_12  and  C_13
REMARK    9  A    between atoms: C_13  and  C_14
REMARK   10  A    between atoms: C_22  and  O_23
REMARK                            x       y       z     vdW  Elec       q    Type
REMARK                         _______ _______ _______ _____ _____    ______ ____
ROOT
ATOM      1  C   UNL     1      31.984  21.283  68.523  0.00  0.00    +0.000 C 
ATOM      2  C   UNL     1      33.033  22.145  68.434  0.00  0.00    +0.000 C 
ENDROOT
BRANCH   1   5
ATOM      3  C   UNL     1      31.650  17.896  70.165  0.00  0.00    +0.000 A 
ATOM      4  C   UNL     1      31.662  18.890  69.216  0.00  0.00    +0.000 A 
ATOM      5  C   UNL     1      31.992  20.183  69.573  0.00  0.00    +0.000 A 
ATOM      6  C   UNL     1      32.328  20.479  70.871  0.00  0.00    +0.000 A 
ATOM      7  C   UNL     1      32.348  19.485  71.825  0.00  0.00    +0.000 A 
ATOM      8  C   UNL     1      32.020  18.166  71.499  0.00  0.00    +0.000 A 
BRANCH   3  10
ATOM      9  C   UNL     1      31.249  16.378  68.371  0.00  0.00    +0.000 C 
ATOM     10  O   UNL     1      31.295  16.654  69.763  0.00  0.00    +0.000 OA
ENDBRANCH   3  10
BRANCH   8  11
ATOM     11  O   UNL     1      32.056  17.135  72.475  0.00  0.00    +0.000 OA
ATOM     12  H   UNL     1      32.093  17.368  73.447  0.00  0.00    +0.000 HD
ENDBRANCH   8  11
ENDBRANCH   1   5
BRANCH   2  13
ATOM     13  C   UNL     1      33.025  23.245  67.384  0.00  0.00    +0.000 C 
ATOM     14  O   UNL     1      32.466  23.046  66.259  0.00  0.00    +0.000 OA
BRANCH  13  15
ATOM     15  C   UNL     1      33.685  24.582  67.679  0.00  0.00    +0.000 C 
BRANCH  15  16
ATOM     16  C   UNL     1      32.745  25.709  67.283  0.00  0.00    +0.000 C 
BRANCH  16  17
ATOM     17  C   UNL     1      31.918  26.126  68.489  0.00  0.00    +0.000 C 
BRANCH  17  18
ATOM     18  C   UNL     1      30.451  25.826  68.225  0.00  0.00    +0.000 C 
BRANCH  18  19
ATOM     19  C   UNL     1      30.046  24.572  68.981  0.00  0.00    +0.000 A 
ATOM     20  C   UNL     1      29.141  23.677  68.436  0.00  0.00    +0.000 A 
ATOM     21  C   UNL     1      28.619  22.749  69.368  0.00  0.00    +0.000 A 
ATOM     22  C   UNL     1      29.162  22.481  70.541  0.00  0.00    +0.000 A 
ATOM     23  C   UNL     1      30.100  23.367  70.994  0.00  0.00    +0.000 A 
ATOM     24  C   UNL     1      30.563  24.378  70.189  0.00  0.00    +0.000 A 
ENDBRANCH  18  19
ENDBRANCH  17  18
ENDBRANCH  16  17
ENDBRANCH  15  16
ENDBRANCH  13  15
ENDBRANCH   2  13
TORSDOF 9
ENDMDL
MODEL 2
REMARK VINA RESULT:    -6.975      2.474      4.018
REMARK INTER + INTRA:         -13.538
REMARK INTER:                 -10.372
REMARK INTRA:                  -3.166
REMARK UNBOUND:                -3.097
REMARK  Name = 
REMARK  10 active torsions:
REMARK  status: ('A' for Active; 'I' for Inactive)
REMARK    1  A    between atoms: C_1  and  O_2
REMARK    2  A    between atoms: O_2  and  C_3
REMARK    3  A    between atoms: C_5  and  C_6
REMARK    4  A    between atoms: C_7  and  C_8
REMARK    5  A    between atoms: C_8  and  C_10
REMARK    6  A    between atoms: C_10  and  C_11
REMARK    7  A    between atoms: C_11  and  C_12
REMARK    8  A    between atoms: C_12  and  C_13
REMARK    9  A    between atoms: C_13  and  C_14
REMARK   10  A    between atoms: C_22  and  O_23
REMARK                            x       y       z     vdW  Elec       q    Type
REMARK                         _______ _______ _______ _____ _____    ______ ____
ROOT
ATOM      1  C   UNL     1      31.759  22.680  71.432  0.00  0.00    +0.000 C 
ATOM      2  C   UNL     1      31.013  23.812  71.314  0.00  0.00    +0.000 C 
ENDROOT
BRANCH   1   5
ATOM      3  C   UNL     1      29.806  20.255  69.292  0.00  0.00    +0.000 A 
ATOM      4  C   UNL     1      30.169  21.389  69.979  0.00  0.00    +0.000 A 
ATOM      5  C   UNL     1      31.371  21.431  70.657  0.00  0.00    +0.000 A 
ATOM      6  C   UNL     1      32.218  20.351  70.634  0.00  0.00    +0.000 A 
ATOM      7  C   UNL     1      31.879  19.219  69.925  0.00  0.00    +0.000 A 
ATOM      8  C   UNL     1      30.670  19.142  69.227  0.00  0.00    +0.000 A 
BRANCH   3  10
ATOM      9  C   UNL     1      28.186  21.450  68.014  0.00  0.00    +0.000 C 
ATOM     10  O   UNL     1      28.606  20.261  68.667  0.00  0.00    +0.000 OA
ENDBRANCH   3  10
BRANCH   8  11
ATOM     11  O   UNL     1      30.324  17.985  68.480  0.00  0.00    +0.000 OA
ATOM     12  H   UNL     1      30.288  18.026  67.482  0.00  0.00    +0.000 HD
ENDBRANCH   8  11
ENDBRANCH   1   5
BRANCH   2  13
ATOM     13  C   UNL     1      31.400  25.061  72.089  0.00  0.00    +0.000 C 
ATOM     14  O   UNL     1      31.324  25.072  73.358  0.00  0.00    +0.000 OA
BRANCH  13  15
ATOM     15  C   UNL     1      31.878  26.299  71.347  0.00  0.00    +0.000 C 
BRANCH  15  16
ATOM     16  C   UNL     1      33.381  26.214  71.135  0.00  0.00    +0.000 C 
BRANCH  16  17
ATOM     17  C   UNL     1      33.676  26.063  69.651  0.00  0.00    +0.000 C 
BRANCH  17  18
ATOM     18  C   UNL     1      34.238  24.676  69.386  0.00  0.00    +0.000 C 
BRANCH  18  19
ATOM     19  C   UNL     1      33.346  23.948  68.395  0.00  0.00    +0.000 A 
ATOM     20  C   UNL     1      32.176  24.529  67.935  0.00  0.00    +0.000 A 
ATOM     21  C   UNL     1      31.301  23.623  67.288  0.00  0.00    +0.000 A 
ATOM     22  C   UNL     1      31.659  22.441  66.822  0.00  0.00    +0.000 A 
ATOM     23  C   UNL     1      32.859  21.951  67.261  0.00  0.00    +0.000 A 
ATOM     24  C   UNL     1      33.709  22.730  68.007  0.00  0.00    +0.000 A 
ENDBRANCH  18  19
ENDBRANCH  17  18
ENDBRANCH  16  17
ENDBRANCH  15  16
ENDBRANCH  13  15
ENDBRANCH   2  13
TORSDOF 9
ENDMDL
MODEL 3
REMARK VINA RESULT:    -6.906      3.019      6.862
REMARK INTER + INTRA:         -13.435
REMARK INTER:                 -10.326
REMARK INTRA:                  -3.109
REMARK UNBOUND:                -3.097
REMARK  Name = 
REMARK  10 active torsions:
REMARK  status: ('A' for Active; 'I' for Inactive)
REMARK    1  A    between atoms: C_1  and  O_2
REMARK    2  A    between atoms: O_2  and  C_3
REMARK    3  A    between atoms: C_5  and  C_6
REMARK    4  A    between atoms: C_7  and  C_8
REMARK    5  A    between atoms: C_8  and  C_10
REMARK    6  A    between atoms: C_10  and  C_11
REMARK    7  A    between atoms: C_11  and  C_12
REMARK    8  A    between atoms: C_12  and  C_13
REMARK    9  A    between atoms: C_13  and  C_14
REMARK   10  A    between atoms: C_22  and  O_23
REMARK                            x       y       z     vdW  Elec       q    Type
REMARK                         _______ _______ _______ _____ _____    ______ ____
ROOT
ATOM      1  C   UNL     1      34.079  24.265  68.269  0.00  0.00    +0.000 C 
ATOM      2  C   UNL     1      32.942  23.830  67.659  0.00  0.00    +0.000 C 
ENDROOT
BRANCH   1   5
ATOM      3  C   UNL     1      33.299  27.900  68.946  0.00  0.00    +0.000 A 
ATOM      4  C   UNL     1      33.238  26.626  68.433  0.00  0.00    +0.000 A 
ATOM      5  C   UNL     1      34.138  25.666  68.854  0.00  0.00    +0.000 A 
ATOM      6  C   UNL     1      35.085  25.973  69.800  0.00  0.00    +0.000 A 
ATOM      7  C   UNL     1      35.138  27.238  70.343  0.00  0.00    +0.000 A 
ATOM      8  C   UNL     1      34.243  28.234  69.940  0.00  0.00    +0.000 A 
BRANCH   3  10
ATOM      9  C   UNL     1      32.735  29.533  67.303  0.00  0.00    +0.000 C 
ATOM     10  O   UNL     1      32.410  28.804  68.479  0.00  0.00    +0.000 OA
ENDBRANCH   3  10
BRANCH   8  11
ATOM     11  O   UNL     1      34.282  29.533  70.510  0.00  0.00    +0.000 OA
ATOM     12  H   UNL     1      34.250  30.340  69.920  0.00  0.00    +0.000 HD
ENDBRANCH   8  11
ENDBRANCH   1   5
BRANCH   2  13
ATOM     13  C   UNL     1      32.883  22.429  67.073  0.00  0.00    +0.000 C 
ATOM     14  O   UNL     1      33.712  22.080  66.174  0.00  0.00    +0.000 OA
BRANCH  13  15
ATOM     15  C   UNL     1      31.833  21.444  67.562  0.00  0.00    +0.000 C 
BRANCH  15  16
ATOM     16  C   UNL     1      32.327  20.763  68.827  0.00  0.00    +0.000 C 
BRANCH  16  17
ATOM     17  C   UNL     1      31.505  21.240  70.014  0.00  0.00    +0.000 C 
BRANCH  17  18
ATOM     18  C   UNL     1      32.396  22.021  70.966  0.00  0.00    +0.000 C 
BRANCH  18  19
ATOM     19  C   UNL     1      31.840  23.424  71.145  0.00  0.00    +0.000 A 
ATOM     20  C   UNL     1      30.699  23.826  70.470  0.00  0.00    +0.000 A 
ATOM     21  C   UNL     1      30.491  25.226  70.478  0.00  0.00    +0.000 A 
ATOM     22  C   UNL     1      31.071  26.064  71.317  0.00  0.00    +0.000 A 
ATOM     23  C   UNL     1      32.152  25.585  72.005  0.00  0.00    +0.000 A 
ATOM     24  C   UNL     1      32.496  24.257  71.945  0.00  0.00    +0.000 A 
ENDBRANCH  18  19
ENDBRANCH  17  18
ENDBRANCH  16  17
ENDBRANCH  15  16
ENDBRANCH  13  15
ENDBRANCH   2  13
TORSDOF 9
ENDMDL
MODEL 4
REMARK VINA RESULT:    -6.874      4.337      8.147
REMARK INTER + INTRA:         -13.386
REMARK INTER:                 -10.960
REMARK INTRA:                  -2.426
REMARK UNBOUND:                -3.097
REMARK  Name = 
REMARK  10 active torsions:
REMARK  status: ('A' for Active; 'I' for Inactive)
REMARK    1  A    between atoms: C_1  and  O_2
REMARK    2  A    between atoms: O_2  and  C_3
REMARK    3  A    between atoms: C_5  and  C_6
REMARK    4  A    between atoms: C_7  and  C_8
REMARK    5  A    between atoms: C_8  and  C_10
REMARK    6  A    between atoms: C_10  and  C_11
REMARK    7  A    between atoms: C_11  and  C_12
REMARK    8  A    between atoms: C_12  and  C_13
REMARK    9  A    between atoms: C_13  and  C_14
REMARK   10  A    between atoms: C_22  and  O_23
REMARK                            x       y       z     vdW  Elec       q    Type
REMARK                         _______ _______ _______ _____ _____    ______ ____
ROOT
ATOM      1  C   UNL     1      32.850  26.640  71.052  0.00  0.00    +0.000 C 
ATOM      2  C   UNL     1      32.800  25.341  71.455  0.00  0.00    +0.000 C 
ENDROOT
BRANCH   1   5
ATOM      3  C   UNL     1      35.558  29.272  70.927  0.00  0.00    +0.000 A 
ATOM      4  C   UNL     1      34.350  28.652  71.144  0.00  0.00    +0.000 A 
ATOM      5  C   UNL     1      34.193  27.316  70.830  0.00  0.00    +0.000 A 
ATOM      6  C   UNL     1      35.245  26.596  70.319  0.00  0.00    +0.000 A 
ATOM      7  C   UNL     1      36.468  27.199  70.125  0.00  0.00    +0.000 A 
ATOM      8  C   UNL     1      36.663  28.549  70.432  0.00  0.00    +0.000 A 
BRANCH   3  10
ATOM      9  C   UNL     1      36.206  30.961  72.480  0.00  0.00    +0.000 C 
ATOM     10  O   UNL     1      35.647  30.587  71.229  0.00  0.00    +0.000 OA
ENDBRANCH   3  10
BRANCH   8  11
ATOM     11  O   UNL     1      37.927  29.170  70.250  0.00  0.00    +0.000 OA
ATOM     12  H   UNL     1      38.628  28.724  69.694  0.00  0.00    +0.000 HD
ENDBRANCH   8  11
ENDBRANCH   1   5
BRANCH   2  13
ATOM     13  C   UNL     1      31.457  24.666  71.677  0.00  0.00    +0.000 C 
ATOM     14  O   UNL     1      30.473  25.336  72.124  0.00  0.00    +0.000 OA
BRANCH  13  15
ATOM     15  C   UNL     1      31.289  23.187  71.366  0.00  0.00    +0.000 C 
BRANCH  15  16
ATOM     16  C   UNL     1      29.954  22.964  70.674  0.00  0.00    +0.000 C 
BRANCH  16  17
ATOM     17  C   UNL     1      30.165  22.919  69.168  0.00  0.00    +0.000 C 
BRANCH  17  18
ATOM     18  C   UNL     1      29.660  24.211  68.548  0.00  0.00    +0.000 C 
BRANCH  18  19
ATOM     19  C   UNL     1      30.836  25.011  68.013  0.00  0.00    +0.000 A 
ATOM     20  C   UNL     1      32.044  24.394  67.734  0.00  0.00    +0.000 A 
ATOM     21  C   UNL     1      33.122  25.295  67.561  0.00  0.00    +0.000 A 
ATOM     22  C   UNL     1      32.987  26.586  67.317  0.00  0.00    +0.000 A 
ATOM     23  C   UNL     1      31.750  27.122  67.547  0.00  0.00    +0.000 A 
ATOM     24  C   UNL     1      30.677  26.319  67.850  0.00  0.00    +0.000 A 
ENDBRANCH  18  19
ENDBRANCH  17  18
ENDBRANCH  16  17
ENDBRANCH  15  16
ENDBRANCH  13  15
ENDBRANCH   2  13
TORSDOF 9
ENDMDL
MODEL 5
REMARK VINA RESULT:    -6.872      2.497      4.217
REMARK INTER + INTRA:         -13.383
REMARK INTER:                 -10.272
REMARK INTRA:                  -3.112
REMARK UNBOUND:                -3.097
REMARK  Name = 
REMARK  10 active torsions:
REMARK  status: ('A' for Active; 'I' for Inactive)
REMARK    1  A    between atoms: C_1  and  O_2
REMARK    2  A    between atoms: O_2  and  C_3
REMARK    3  A    between atoms: C_5  and  C_6
REMARK    4  A    between atoms: C_7  and  C_8
REMARK    5  A    between atoms: C_8  and  C_10
REMARK    6  A    between atoms: C_10  and  C_11
REMARK    7  A    between atoms: C_11  and  C_12
REMARK    8  A    between atoms: C_12  and  C_13
REMARK    9  A    between atoms: C_13  and  C_14
REMARK   10  A    between atoms: C_22  and  O_23
REMARK                            x       y       z     vdW  Elec       q    Type
REMARK                         _______ _______ _______ _____ _____    ______ ____
ROOT
ATOM      1  C   UNL     1      34.391  25.242  68.912  0.00  0.00    +0.000 C 
ATOM      2  C   UNL     1      34.440  25.829  70.139  0.00  0.00    +0.000 C 
ENDROOT
BRANCH   1   5
ATOM      3  C   UNL     1      32.871  22.139  67.383  0.00  0.00    +0.000 A 
ATOM      4  C   UNL     1      33.407  23.397  67.521  0.00  0.00    +0.000 A 
ATOM      5  C   UNL     1      33.818  23.842  68.762  0.00  0.00    +0.000 A 
ATOM      6  C   UNL     1      33.711  23.026  69.861  0.00  0.00    +0.000 A 
ATOM      7  C   UNL     1      33.203  21.752  69.731  0.00  0.00    +0.000 A 
ATOM      8  C   UNL     1      32.778  21.268  68.489  0.00  0.00    +0.000 A 
BRANCH   3  10
ATOM      9  C   UNL     1      31.070  21.760  65.868  0.00  0.00    +0.000 C 
ATOM     10  O   UNL     1      32.462  21.766  66.150  0.00  0.00    +0.000 OA
ENDBRANCH   3  10
BRANCH   8  11
ATOM     11  O   UNL     1      32.270  19.950  68.347  0.00  0.00    +0.000 OA
ATOM     12  H   UNL     1      32.241  19.520  67.445  0.00  0.00    +0.000 HD
ENDBRANCH   8  11
ENDBRANCH   1   5
BRANCH   2  13
ATOM     13  C   UNL     1      35.012  27.229  70.289  0.00  0.00    +0.000 C 
ATOM     14  O   UNL     1      36.272  27.402  70.313  0.00  0.00    +0.000 OA
BRANCH  13  15
ATOM     15  C   UNL     1      34.079  28.423  70.411  0.00  0.00    +0.000 C 
BRANCH  15  16
ATOM     16  C   UNL     1      33.303  28.594  69.116  0.00  0.00    +0.000 C 
BRANCH  16  17
ATOM     17  C   UNL     1      31.825  28.349  69.374  0.00  0.00    +0.000 C 
BRANCH  17  18
ATOM     18  C   UNL     1      31.298  27.334  68.372  0.00  0.00    +0.000 C 
BRANCH  18  19
ATOM     19  C   UNL     1      30.785  26.110  69.113  0.00  0.00    +0.000 A 
ATOM     20  C   UNL     1      30.873  26.028  70.492  0.00  0.00    +0.000 A 
ATOM     21  C   UNL     1      30.662  24.725  71.004  0.00  0.00    +0.000 A 
ATOM     22  C   UNL     1      30.087  23.742  70.336  0.00  0.00    +0.000 A 
ATOM     23  C   UNL     1      29.967  23.914  68.984  0.00  0.00    +0.000 A 
ATOM     24  C   UNL     1      30.277  25.115  68.394  0.00  0.00    +0.000 A 
ENDBRANCH  18  19
ENDBRANCH  17  18
ENDBRANCH  16  17
ENDBRANCH  15  16
ENDBRANCH  13  15
ENDBRANCH   2  13
TORSDOF 9
ENDMDL
MODEL 6
REMARK VINA RESULT:    -6.799      2.140      3.680
REMARK INTER + INTRA:         -13.273
REMARK INTER:                 -10.190
REMARK INTRA:                  -3.083
REMARK UNBOUND:                -3.097
REMARK  Name = 
REMARK  10 active torsions:
REMARK  status: ('A' for Active; 'I' for Inactive)
REMARK    1  A    between atoms: C_1  and  O_2
REMARK    2  A    between atoms: O_2  and  C_3
REMARK    3  A    between atoms: C_5  and  C_6
REMARK    4  A    between atoms: C_7  and  C_8
REMARK    5  A    between atoms: C_8  and  C_10
REMARK    6  A    between atoms: C_10  and  C_11
REMARK    7  A    between atoms: C_11  and  C_12
REMARK    8  A    between atoms: C_12  and  C_13
REMARK    9  A    between atoms: C_13  and  C_14
REMARK   10  A    between atoms: C_22  and  O_23
REMARK                            x       y       z     vdW  Elec       q    Type
REMARK                         _______ _______ _______ _____ _____    ______ ____
ROOT
ATOM      1  C   UNL     1      33.876  24.235  68.147  0.00  0.00    +0.000 C 
ATOM      2  C   UNL     1      34.230  24.483  69.438  0.00  0.00    +0.000 C 
ENDROOT
BRANCH   1   5
ATOM      3  C   UNL     1      32.294  20.805  68.281  0.00  0.00    +0.000 A 
ATOM      4  C   UNL     1      33.075  21.895  68.587  0.00  0.00    +0.000 A 
ATOM      5  C   UNL     1      32.995  23.040  67.818  0.00  0.00    +0.000 A 
ATOM      6  C   UNL     1      32.125  23.104  66.758  0.00  0.00    +0.000 A 
ATOM      7  C   UNL     1      31.317  22.029  66.459  0.00  0.00    +0.000 A 
ATOM      8  C   UNL     1      31.370  20.854  67.217  0.00  0.00    +0.000 A 
BRANCH   3  10
ATOM      9  C   UNL     1      31.838  19.698  70.343  0.00  0.00    +0.000 C 
ATOM     10  O   UNL     1      32.432  19.703  69.052  0.00  0.00    +0.000 OA
ENDBRANCH   3  10
BRANCH   8  11
ATOM     11  O   UNL     1      30.526  19.751  66.924  0.00  0.00    +0.000 OA
ATOM     12  H   UNL     1      29.631  19.903  66.506  0.00  0.00    +0.000 HD
ENDBRANCH   8  11
ENDBRANCH   1   5
BRANCH   2  13
ATOM     13  C   UNL     1      35.110  25.678  69.767  0.00  0.00    +0.000 C 
ATOM     14  O   UNL     1      36.358  25.633  69.529  0.00  0.00    +0.000 OA
BRANCH  13  15
ATOM     15  C   UNL     1      34.498  26.926  70.382  0.00  0.00    +0.000 C 
BRANCH  15  16
ATOM     16  C   UNL     1      33.408  27.460  69.467  0.00  0.00    +0.000 C 
BRANCH  16  17
ATOM     17  C   UNL     1      32.051  27.257  70.123  0.00  0.00    +0.000 C 
BRANCH  17  18
ATOM     18  C   UNL     1      31.090  26.645  69.118  0.00  0.00    +0.000 C 
BRANCH  18  19
ATOM     19  C   UNL     1      30.576  25.318  69.651  0.00  0.00    +0.000 A 
ATOM     20  C   UNL     1      31.004  24.832  70.875  0.00  0.00    +0.000 A 
ATOM     21  C   UNL     1      30.704  23.465  71.087  0.00  0.00    +0.000 A 
ATOM     22  C   UNL     1      29.808  22.780  70.401  0.00  0.00    +0.000 A 
ATOM     23  C   UNL     1      29.373  23.346  69.234  0.00  0.00    +0.000 A 
ATOM     24  C   UNL     1      29.728  24.629  68.895  0.00  0.00    +0.000 A 
ENDBRANCH  18  19
ENDBRANCH  17  18
ENDBRANCH  16  17
ENDBRANCH  15  16
ENDBRANCH  13  15
ENDBRANCH   2  13
TORSDOF 9
ENDMDL
MODEL 7
REMARK VINA RESULT:    -6.789      2.427      3.879
REMARK INTER + INTRA:         -13.259
REMARK INTER:                 -10.217
REMARK INTRA:                  -3.042
REMARK UNBOUND:                -3.097
REMARK  Name = 
REMARK  10 active torsions:
REMARK  status: ('A' for Active; 'I' for Inactive)
REMARK    1  A    between atoms: C_1  and  O_2
REMARK    2  A    between atoms: O_2  and  C_3
REMARK    3  A    between atoms: C_5  and  C_6
REMARK    4  A    between atoms: C_7  and  C_8
REMARK    5  A    between atoms: C_8  and  C_10
REMARK    6  A    between atoms: C_10  and  C_11
REMARK    7  A    between atoms: C_11  and  C_12
REMARK    8  A    between atoms: C_12  and  C_13
REMARK    9  A    between atoms: C_13  and  C_14
REMARK   10  A    between atoms: C_22  and  O_23
REMARK                            x       y       z     vdW  Elec       q    Type
REMARK                         _______ _______ _______ _____ _____    ______ ____
ROOT
ATOM      1  C   UNL     1      32.204  23.064  71.304  0.00  0.00    +0.000 C 
ATOM      2  C   UNL     1      31.687  24.316  71.434  0.00  0.00    +0.000 C 
ENDROOT
BRANCH   1   5
ATOM      3  C   UNL     1      31.259  19.778  69.696  0.00  0.00    +0.000 A 
ATOM      4  C   UNL     1      31.984  20.761  70.326  0.00  0.00    +0.000 A 
ATOM      5  C   UNL     1      31.392  21.973  70.626  0.00  0.00    +0.000 A 
ATOM      6  C   UNL     1      30.074  22.195  70.313  0.00  0.00    +0.000 A 
ATOM      7  C   UNL     1      29.329  21.207  69.707  0.00  0.00    +0.000 A 
ATOM      8  C   UNL     1      29.896  19.969  69.390  0.00  0.00    +0.000 A 
BRANCH   3  10
ATOM      9  C   UNL     1      31.920  17.592  70.383  0.00  0.00    +0.000 C 
ATOM     10  O   UNL     1      31.898  18.622  69.404  0.00  0.00    +0.000 OA
ENDBRANCH   3  10
BRANCH   8  11
ATOM     11  O   UNL     1      29.127  18.942  68.783  0.00  0.00    +0.000 OA
ATOM     12  H   UNL     1      29.478  18.006  68.752  0.00  0.00    +0.000 HD
ENDBRANCH   8  11
ENDBRANCH   1   5
BRANCH   2  13
ATOM     13  C   UNL     1      32.499  25.407  72.112  0.00  0.00    +0.000 C 
ATOM     14  O   UNL     1      32.755  25.330  73.355  0.00  0.00    +0.000 OA
BRANCH  13  15
ATOM     15  C   UNL     1      33.004  26.592  71.305  0.00  0.00    +0.000 C 
BRANCH  15  16
ATOM     16  C   UNL     1      34.225  26.173  70.502  0.00  0.00    +0.000 C 
BRANCH  16  17
ATOM     17  C   UNL     1      33.896  26.223  69.018  0.00  0.00    +0.000 C 
BRANCH  17  18
ATOM     18  C   UNL     1      34.500  25.012  68.325  0.00  0.00    +0.000 C 
BRANCH  18  19
ATOM     19  C   UNL     1      33.391  24.064  67.902  0.00  0.00    +0.000 A 
ATOM     20  C   UNL     1      33.670  22.748  67.573  0.00  0.00    +0.000 A 
ATOM     21  C   UNL     1      32.615  22.089  66.897  0.00  0.00    +0.000 A 
ATOM     22  C   UNL     1      31.362  22.505  66.880  0.00  0.00    +0.000 A 
ATOM     23  C   UNL     1      31.143  23.794  67.283  0.00  0.00    +0.000 A 
ATOM     24  C   UNL     1      32.154  24.544  67.831  0.00  0.00    +0.000 A 
ENDBRANCH  18  19
ENDBRANCH  17  18
ENDBRANCH  16  17
ENDBRANCH  15  16
ENDBRANCH  13  15
ENDBRANCH   2  13
TORSDOF 9
ENDMDL
MODEL 8
REMARK VINA RESULT:    -6.774      2.994      6.512
REMARK INTER + INTRA:         -13.236
REMARK INTER:                 -10.831
REMARK INTRA:                  -2.405
REMARK UNBOUND:                -3.097
REMARK  Name = 
REMARK  10 active torsions:
REMARK  status: ('A' for Active; 'I' for Inactive)
REMARK    1  A    between atoms: C_1  and  O_2
REMARK    2  A    between atoms: O_2  and  C_3
REMARK    3  A    between atoms: C_5  and  C_6
REMARK    4  A    between atoms: C_7  and  C_8
REMARK    5  A    between atoms: C_8  and  C_10
REMARK    6  A    between atoms: C_10  and  C_11
REMARK    7  A    between atoms: C_11  and  C_12
REMARK    8  A    between atoms: C_12  and  C_13
REMARK    9  A    between atoms: C_13  and  C_14
REMARK   10  A    between atoms: C_22  and  O_23
REMARK                            x       y       z     vdW  Elec       q    Type
REMARK                         _______ _______ _______ _____ _____    ______ ____
ROOT
ATOM      1  C   UNL     1      33.436  24.443  68.182  0.00  0.00    +0.000 C 
ATOM      2  C   UNL     1      32.203  24.046  67.763  0.00  0.00    +0.000 C 
ENDROOT
BRANCH   1   5
ATOM      3  C   UNL     1      32.582  27.453  70.300  0.00  0.00    +0.000 A 
ATOM      4  C   UNL     1      32.460  26.374  69.458  0.00  0.00    +0.000 A 
ATOM      5  C   UNL     1      33.572  25.624  69.130  0.00  0.00    +0.000 A 
ATOM      6  C   UNL     1      34.801  25.940  69.656  0.00  0.00    +0.000 A 
ATOM      7  C   UNL     1      34.930  27.002  70.524  0.00  0.00    +0.000 A 
ATOM      8  C   UNL     1      33.825  27.782  70.879  0.00  0.00    +0.000 A 
BRANCH   3  10
ATOM      9  C   UNL     1      30.508  27.621  71.465  0.00  0.00    +0.000 C 
ATOM     10  O   UNL     1      31.464  28.166  70.566  0.00  0.00    +0.000 OA
ENDBRANCH   3  10
BRANCH   8  11
ATOM     11  O   UNL     1      33.951  28.866  71.787  0.00  0.00    +0.000 OA
ATOM     12  H   UNL     1      33.832  29.805  71.464  0.00  0.00    +0.000 HD
ENDBRANCH   8  11
ENDBRANCH   1   5
BRANCH   2  13
ATOM     13  C   UNL     1      32.067  22.866  66.815  0.00  0.00    +0.000 C 
ATOM     14  O   UNL     1      33.105  22.270  66.388  0.00  0.00    +0.000 OA
BRANCH  13  15
ATOM     15  C   UNL     1      30.688  22.398  66.377  0.00  0.00    +0.000 C 
BRANCH  15  16
ATOM     16  C   UNL     1      30.484  20.954  66.805  0.00  0.00    +0.000 C 
BRANCH  16  17
ATOM     17  C   UNL     1      29.388  20.886  67.856  0.00  0.00    +0.000 C 
BRANCH  17  18
ATOM     18  C   UNL     1      29.925  20.205  69.104  0.00  0.00    +0.000 C 
BRANCH  18  19
ATOM     19  C   UNL     1      30.558  21.243  70.017  0.00  0.00    +0.000 A 
ATOM     20  C   UNL     1      29.821  22.318  70.485  0.00  0.00    +0.000 A 
ATOM     21  C   UNL     1      30.608  23.354  71.042  0.00  0.00    +0.000 A 
ATOM     22  C   UNL     1      31.862  23.214  71.431  0.00  0.00    +0.000 A 
ATOM     23  C   UNL     1      32.515  22.096  70.991  0.00  0.00    +0.000 A 
ATOM     24  C   UNL     1      31.842  21.101  70.326  0.00  0.00    +0.000 A 
ENDBRANCH  18  19
ENDBRANCH  17  18
ENDBRANCH  16  17
ENDBRANCH  15  16
ENDBRANCH  13  15
ENDBRANCH   2  13
TORSDOF 9
ENDMDL
MODEL 9
REMARK VINA RESULT:    -6.512      3.183      6.956
REMARK INTER + INTRA:         -12.845
REMARK INTER:                  -9.749
REMARK INTRA:                  -3.097
REMARK UNBOUND:                -3.097
REMARK  Name = 
REMARK  10 active torsions:
REMARK  status: ('A' for Active; 'I' for Inactive)
REMARK    1  A    between atoms: C_1  and  O_2
REMARK    2  A    between atoms: O_2  and  C_3
REMARK    3  A    between atoms: C_5  and  C_6
REMARK    4  A    between atoms: C_7  and  C_8
REMARK    5  A    between atoms: C_8  and  C_10
REMARK    6  A    between atoms: C_10  and  C_11
REMARK    7  A    between atoms: C_11  and  C_12
REMARK    8  A    between atoms: C_12  and  C_13
REMARK    9  A    between atoms: C_13  and  C_14
REMARK   10  A    between atoms: C_22  and  O_23
REMARK                            x       y       z     vdW  Elec       q    Type
REMARK                         _______ _______ _______ _____ _____    ______ ____
ROOT
ATOM      1  C   UNL     1      29.805  24.293  68.894  0.00  0.00    +0.000 C 
ATOM      2  C   UNL     1      29.556  23.164  69.610  0.00  0.00    +0.000 C 
ENDROOT
BRANCH   1   5
ATOM      3  C   UNL     1      31.407  27.677  69.407  0.00  0.00    +0.000 A 
ATOM      4  C   UNL     1      30.761  26.615  68.820  0.00  0.00    +0.000 A 
ATOM      5  C   UNL     1      30.501  25.473  69.553  0.00  0.00    +0.000 A 
ATOM      6  C   UNL     1      30.869  25.399  70.874  0.00  0.00    +0.000 A 
ATOM      7  C   UNL     1      31.491  26.468  71.481  0.00  0.00    +0.000 A 
ATOM      8  C   UNL     1      31.769  27.639  70.769  0.00  0.00    +0.000 A 
BRANCH   3  10
ATOM      9  C   UNL     1      32.775  28.723  67.758  0.00  0.00    +0.000 C 
ATOM     10  O   UNL     1      31.658  28.758  68.635  0.00  0.00    +0.000 OA
ENDBRANCH   3  10
BRANCH   8  11
ATOM     11  O   UNL     1      32.394  28.750  71.396  0.00  0.00    +0.000 OA
ATOM     12  H   UNL     1      32.465  29.622  70.912  0.00  0.00    +0.000 HD
ENDBRANCH   8  11
ENDBRANCH   1   5
BRANCH   2  13
ATOM     13  C   UNL     1      28.859  21.984  68.951  0.00  0.00    +0.000 C 
ATOM     14  O   UNL     1      27.674  22.111  68.509  0.00  0.00    +0.000 OA
BRANCH  13  15
ATOM     15  C   UNL     1      29.580  20.652  68.821  0.00  0.00    +0.000 C 
BRANCH  15  16
ATOM     16  C   UNL     1      30.486  20.684  67.601  0.00  0.00    +0.000 C 
BRANCH  16  17
ATOM     17  C   UNL     1      31.927  20.878  68.046  0.00  0.00    +0.000 C 
BRANCH  17  18
ATOM     18  C   UNL     1      32.563  21.991  67.228  0.00  0.00    +0.000 C 
BRANCH  18  19
ATOM     19  C   UNL     1      33.123  23.051  68.163  0.00  0.00    +0.000 A 
ATOM     20  C   UNL     1      33.468  24.305  67.687  0.00  0.00    +0.000 A 
ATOM     21  C   UNL     1      34.264  25.059  68.581  0.00  0.00    +0.000 A 
ATOM     22  C   UNL     1      34.389  24.804  69.870  0.00  0.00    +0.000 A 
ATOM     23  C   UNL     1      33.966  23.572  70.290  0.00  0.00    +0.000 A 
ATOM     24  C   UNL     1      33.297  22.727  69.439  0.00  0.00    +0.000 A 
ENDBRANCH  18  19
ENDBRANCH  17  18
ENDBRANCH  16  17
ENDBRANCH  15  16
ENDBRANCH  13  15
ENDBRANCH   2  13
TORSDOF 9
ENDMDL
