MODEL 1
REMARK VINA RESULT:    -8.073      0.000      0.000
REMARK INTER + INTRA:          -9.906
REMARK INTER:                  -9.458
REMARK INTRA:                  -0.448
REMARK UNBOUND:                -0.418
REMARK  Name = 
REMARK  5 active torsions:
REMARK  status: ('A' for Active; 'I' for Inactive)
REMARK    1  A    between atoms: C_4  and  C_5
REMARK    2  A    between atoms: C_14  and  O_15
REMARK    3  A    between atoms: O_15  and  C_16
REMARK    4  A    between atoms: C_18  and  O_19
REMARK    5  A    between atoms: O_19  and  C_20
REMARK                            x       y       z     vdW  Elec       q    Type
REMARK                         _______ _______ _______ _____ _____    ______ ____
ROOT
ATOM      1  O   UNL     1      34.900  24.984  69.765  0.00  0.00    +0.000 OA
ATOM      2  C   UNL     1      34.590  26.175  69.699  0.00  0.00    +0.000 A 
ATOM      3  C   UNL     1      35.301  27.264  70.339  0.00  0.00    +0.000 A 
ATOM      4  C   UNL     1      34.852  28.586  70.126  0.00  0.00    +0.000 A 
ATOM      5  O   UNL     1      33.743  28.890  69.419  0.00  0.00    +0.000 OA
ATOM      6  C   UNL     1      33.033  27.890  68.780  0.00  0.00    +0.000 A 
ATOM      7  C   UNL     1      31.940  28.302  68.033  0.00  0.00    +0.000 A 
ATOM      8  C   UNL     1      31.219  27.335  67.358  0.00  0.00    +0.000 A 
ATOM      9  C   UNL     1      31.576  25.996  67.430  0.00  0.00    +0.000 A 
ATOM     10  C   UNL     1      32.664  25.612  68.185  0.00  0.00    +0.000 A 
ATOM     11  C   UNL     1      33.414  26.567  68.882  0.00  0.00    +0.000 A 
ENDROOT
BRANCH   4  12
ATOM     12  C   UNL     1      35.660  29.726  70.723  0.00  0.00    +0.000 A 
ATOM     13  C   UNL     1      36.363  29.513  71.897  0.00  0.00    +0.000 A 
ATOM     14  C   UNL     1      36.831  30.699  72.510  0.00  0.00    +0.000 A 
ATOM     15  C   UNL     1      36.937  31.866  71.899  0.00  0.00    +0.000 A 
ATOM     16  C   UNL     1      36.275  31.992  70.710  0.00  0.00    +0.000 A 
ATOM     17  C   UNL     1      35.681  30.906  70.113  0.00  0.00    +0.000 A 
ENDBRANCH   4  12
BRANCH   8  18
ATOM     18  O   UNL     1      30.095  27.718  66.580  0.00  0.00    +0.000 OA
ATOM     19  C   UNL     1      29.891  29.084  66.250  0.00  0.00    +0.000 C 
ENDBRANCH   8  18
BRANCH  10  20
ATOM     20  O   UNL     1      33.025  24.241  68.257  0.00  0.00    +0.000 OA
ATOM     21  C   UNL     1      32.531  23.326  67.290  0.00  0.00    +0.000 C 
ENDBRANCH  10  20
TORSDOF 3
ENDMDL
MODEL 2
REMARK VINA RESULT:    -8.053      3.564      8.208
REMARK INTER + INTRA:          -9.883
REMARK INTER:                  -9.422
REMARK INTRA:                  -0.462
REMARK UNBOUND:                -0.418
REMARK  Name = 
REMARK  5 active torsions:
REMARK  status: ('A' for Active; 'I' for Inactive)
REMARK    1  A    between atoms: C_4  and  C_5
REMARK    2  A    between atoms: C_14  and  O_15
REMARK    3  A    between atoms: O_15  and  C_16
REMARK    4  A    between atoms: C_18  and  O_19
REMARK    5  A    between atoms: O_19  and  C_20
REMARK                            x       y       z     vdW  Elec       q    Type
REMARK                         _______ _______ _______ _____ _____    ______ ____
ROOT
ATOM      1  O   UNL     1      32.695  23.142  66.359  0.00  0.00    +0.000 OA
ATOM      2  C   UNL     1      32.620  22.825  67.549  0.00  0.00    +0.000 A 
ATOM      3  C   UNL     1      32.254  21.514  68.047  0.00  0.00    +0.000 A 
ATOM      4  C   UNL     1      32.263  21.291  69.442  0.00  0.00    +0.000 A 
ATOM      5  O   UNL     1      32.517  22.258  70.348  0.00  0.00    +0.000 OA
ATOM      6  C   UNL     1      32.881  23.525  69.926  0.00  0.00    +0.000 A 
ATOM      7  C   UNL     1      33.176  24.437  70.927  0.00  0.00    +0.000 A 
ATOM      8  C   UNL     1      33.568  25.707  70.547  0.00  0.00    +0.000 A 
ATOM      9  C   UNL     1      33.658  26.056  69.207  0.00  0.00    +0.000 A 
ATOM     10  C   UNL     1      33.352  25.131  68.231  0.00  0.00    +0.000 A 
ATOM     11  C   UNL     1      32.951  23.837  68.584  0.00  0.00    +0.000 A 
ENDROOT
BRANCH   4  12
ATOM     12  C   UNL     1      31.972  19.889  69.948  0.00  0.00    +0.000 A 
ATOM     13  C   UNL     1      32.074  19.626  71.305  0.00  0.00    +0.000 A 
ATOM     14  C   UNL     1      32.070  18.248  71.624  0.00  0.00    +0.000 A 
ATOM     15  C   UNL     1      31.652  17.292  70.813  0.00  0.00    +0.000 A 
ATOM     16  C   UNL     1      31.505  17.633  69.497  0.00  0.00    +0.000 A 
ATOM     17  C   UNL     1      31.623  18.939  69.087  0.00  0.00    +0.000 A 
ENDBRANCH   4  12
BRANCH   8  18
ATOM     18  O   UNL     1      33.882  26.669  71.543  0.00  0.00    +0.000 OA
ATOM     19  C   UNL     1      34.443  27.919  71.171  0.00  0.00    +0.000 C 
ENDBRANCH   8  18
BRANCH  10  20
ATOM     20  O   UNL     1      33.445  25.493  66.861  0.00  0.00    +0.000 OA
ATOM     21  C   UNL     1      33.008  26.776  66.435  0.00  0.00    +0.000 C 
ENDBRANCH  10  20
TORSDOF 3
ENDMDL
MODEL 3
REMARK VINA RESULT:    -8.038      2.634      3.842
REMARK INTER + INTRA:          -9.865
REMARK INTER:                  -9.453
REMARK INTRA:                  -0.412
REMARK UNBOUND:                -0.418
REMARK  Name = 
REMARK  5 active torsions:
REMARK  status: ('A' for Active; 'I' for Inactive)
REMARK    1  A    between atoms: C_4  and  C_5
REMARK    2  A    between atoms: C_14  and  O_15
REMARK    3  A    between atoms: O_15  and  C_16
REMARK    4  A    between atoms: C_18  and  O_19
REMARK    5  A    between atoms: O_19  and  C_20
REMARK                            x       y       z     vdW  Elec       q    Type
REMARK                         _______ _______ _______ _____ _____    ______ ____
ROOT
ATOM      1  O   UNL     1      32.247  24.937  72.164  0.00  0.00    +0.000 OA
ATOM      2  C   UNL     1      32.951  25.395  71.261  0.00  0.00    +0.000 A 
ATOM      3  C   UNL     1      33.629  26.675  71.293  0.00  0.00    +0.000 A 
ATOM      4  C   UNL     1      34.445  27.039  70.198  0.00  0.00    +0.000 A 
ATOM      5  O   UNL     1      34.566  26.293  69.081  0.00  0.00    +0.000 OA
ATOM      6  C   UNL     1      33.947  25.058  69.002  0.00  0.00    +0.000 A 
ATOM      7  C   UNL     1      34.172  24.339  67.839  0.00  0.00    +0.000 A 
ATOM      8  C   UNL     1      33.592  23.089  67.731  0.00  0.00    +0.000 A 
ATOM      9  C   UNL     1      32.807  22.575  68.753  0.00  0.00    +0.000 A 
ATOM     10  C   UNL     1      32.593  23.314  69.897  0.00  0.00    +0.000 A 
ATOM     11  C   UNL     1      33.166  24.584  70.036  0.00  0.00    +0.000 A 
ENDROOT
BRANCH   4  12
ATOM     12  C   UNL     1      35.226  28.339  70.284  0.00  0.00    +0.000 A 
ATOM     13  C   UNL     1      34.657  29.503  69.794  0.00  0.00    +0.000 A 
ATOM     14  C   UNL     1      35.569  30.576  69.658  0.00  0.00    +0.000 A 
ATOM     15  C   UNL     1      36.748  30.637  70.252  0.00  0.00    +0.000 A 
ATOM     16  C   UNL     1      37.225  29.467  70.776  0.00  0.00    +0.000 A 
ATOM     17  C   UNL     1      36.439  28.341  70.826  0.00  0.00    +0.000 A 
ENDBRANCH   4  12
BRANCH   8  18
ATOM     18  O   UNL     1      33.802  22.320  66.556  0.00  0.00    +0.000 OA
ATOM     19  C   UNL     1      35.002  21.577  66.398  0.00  0.00    +0.000 C 
ENDBRANCH   8  18
BRANCH  10  20
ATOM     20  O   UNL     1      31.788  22.784  70.939  0.00  0.00    +0.000 OA
ATOM     21  C   UNL     1      31.981  21.446  71.375  0.00  0.00    +0.000 C 
ENDBRANCH  10  20
TORSDOF 3
ENDMDL
MODEL 4
REMARK VINA RESULT:    -7.959      6.462     10.415
REMARK INTER + INTRA:          -9.772
REMARK INTER:                  -9.352
REMARK INTRA:                  -0.420
REMARK UNBOUND:                -0.418
REMARK  Name = 
REMARK  5 active torsions:
REMARK  status: ('A' for Active; 'I' for Inactive)
REMARK    1  A    between atoms: C_4  and  C_5
REMARK    2  A    between atoms: C_14  and  O_15
REMARK    3  A    between atoms: O_15  and  C_16
REMARK    4  A    between atoms: C_18  and  O_19
REMARK    5  A    between atoms: O_19  and  C_20
REMARK                            x       y       z     vdW  Elec       q    Type
REMARK                         _______ _______ _______ _____ _____    ______ ____
ROOT
ATOM      1  O   UNL     1      29.856  23.548  71.004  0.00  0.00    +0.000 OA
ATOM      2  C   UNL     1      29.301  22.720  70.278  0.00  0.00    +0.000 A 
ATOM      3  C   UNL     1      27.987  22.869  69.687  0.00  0.00    +0.000 A 
ATOM      4  C   UNL     1      27.508  21.853  68.831  0.00  0.00    +0.000 A 
ATOM      5  O   UNL     1      28.175  20.704  68.595  0.00  0.00    +0.000 OA
ATOM      6  C   UNL     1      29.438  20.514  69.127  0.00  0.00    +0.000 A 
ATOM      7  C   UNL     1      30.070  19.329  68.787  0.00  0.00    +0.000 A 
ATOM      8  C   UNL     1      31.343  19.112  69.278  0.00  0.00    +0.000 A 
ATOM      9  C   UNL     1      31.966  20.050  70.089  0.00  0.00    +0.000 A 
ATOM     10  C   UNL     1      31.312  21.218  70.418  0.00  0.00    +0.000 A 
ATOM     11  C   UNL     1      30.021  21.467  69.938  0.00  0.00    +0.000 A 
ENDROOT
BRANCH   4  12
ATOM     12  C   UNL     1      26.170  22.063  68.141  0.00  0.00    +0.000 A 
ATOM     13  C   UNL     1      25.231  21.044  68.163  0.00  0.00    +0.000 A 
ATOM     14  C   UNL     1      24.161  21.231  67.258  0.00  0.00    +0.000 A 
ATOM     15  C   UNL     1      23.845  22.386  66.699  0.00  0.00    +0.000 A 
ATOM     16  C   UNL     1      24.787  23.374  66.770  0.00  0.00    +0.000 A 
ATOM     17  C   UNL     1      25.921  23.216  67.530  0.00  0.00    +0.000 A 
ENDBRANCH   4  12
BRANCH   8  18
ATOM     18  O   UNL     1      32.024  17.910  68.948  0.00  0.00    +0.000 OA
ATOM     19  C   UNL     1      31.300  16.799  68.441  0.00  0.00    +0.000 C 
ENDBRANCH   8  18
BRANCH  10  20
ATOM     20  O   UNL     1      31.953  22.175  71.249  0.00  0.00    +0.000 OA
ATOM     21  C   UNL     1      33.178  22.765  70.839  0.00  0.00    +0.000 C 
ENDBRANCH  10  20
TORSDOF 3
ENDMDL
MODEL 5
REMARK VINA RESULT:    -7.958      5.906     10.511
REMARK INTER + INTRA:          -9.771
REMARK INTER:                  -9.336
REMARK INTRA:                  -0.435
REMARK UNBOUND:                -0.418
REMARK  Name = 
REMARK  5 active torsions:
REMARK  status: ('A' for Active; 'I' for Inactive)
REMARK    1  A    between atoms: C_4  and  C_5
REMARK    2  A    between atoms: C_14  and  O_15
REMARK    3  A    between atoms: O_15  and  C_16
REMARK    4  A    between atoms: C_18  and  O_19
REMARK    5  A    between atoms: O_19  and  C_20
REMARK                            x       y       z     vdW  Elec       q    Type
REMARK                         _______ _______ _______ _____ _____    ______ ____
ROOT
ATOM      1  O   UNL     1      32.758  20.861  71.725  0.00  0.00    +0.000 OA
ATOM      2  C   UNL     1      31.958  20.341  70.944  0.00  0.00    +0.000 A 
ATOM      3  C   UNL     1      31.905  18.932  70.611  0.00  0.00    +0.000 A 
ATOM      4  C   UNL     1      30.894  18.478  69.735  0.00  0.00    +0.000 A 
ATOM      5  O   UNL     1      30.017  19.301  69.123  0.00  0.00    +0.000 OA
ATOM      6  C   UNL     1      30.017  20.654  69.412  0.00  0.00    +0.000 A 
ATOM      7  C   UNL     1      29.046  21.411  68.778  0.00  0.00    +0.000 A 
ATOM      8  C   UNL     1      28.997  22.763  69.059  0.00  0.00    +0.000 A 
ATOM      9  C   UNL     1      29.894  23.343  69.945  0.00  0.00    +0.000 A 
ATOM     10  C   UNL     1      30.856  22.567  70.557  0.00  0.00    +0.000 A 
ATOM     11  C   UNL     1      30.933  21.194  70.292  0.00  0.00    +0.000 A 
ENDROOT
BRANCH   4  12
ATOM     12  C   UNL     1      30.788  16.986  69.469  0.00  0.00    +0.000 A 
ATOM     13  C   UNL     1      31.948  16.244  69.316  0.00  0.00    +0.000 A 
ATOM     14  C   UNL     1      31.735  14.948  68.789  0.00  0.00    +0.000 A 
ATOM     15  C   UNL     1      30.568  14.330  68.771  0.00  0.00    +0.000 A 
ATOM     16  C   UNL     1      29.465  15.106  68.996  0.00  0.00    +0.000 A 
ATOM     17  C   UNL     1      29.591  16.417  69.387  0.00  0.00    +0.000 A 
ENDBRANCH   4  12
BRANCH   8  18
ATOM     18  O   UNL     1      28.013  23.573  68.431  0.00  0.00    +0.000 OA
ATOM     19  C   UNL     1      26.750  23.021  68.091  0.00  0.00    +0.000 C 
ENDBRANCH   8  18
BRANCH  10  20
ATOM     20  O   UNL     1      31.773  23.164  71.462  0.00  0.00    +0.000 OA
ATOM     21  C   UNL     1      31.592  24.513  71.870  0.00  0.00    +0.000 C 
ENDBRANCH  10  20
TORSDOF 3
ENDMDL
MODEL 6
REMARK VINA RESULT:    -7.907      3.097      5.062
REMARK INTER + INTRA:          -9.711
REMARK INTER:                  -9.248
REMARK INTRA:                  -0.464
REMARK UNBOUND:                -0.418
REMARK  Name = 
REMARK  5 active torsions:
REMARK  status: ('A' for Active; 'I' for Inactive)
REMARK    1  A    between atoms: C_4  and  C_5
REMARK    2  A    between atoms: C_14  and  O_15
REMARK    3  A    between atoms: O_15  and  C_16
REMARK    4  A    between atoms: C_18  and  O_19
REMARK    5  A    between atoms: O_19  and  C_20
REMARK                            x       y       z     vdW  Elec       q    Type
REMARK                         _______ _______ _______ _____ _____    ______ ____
ROOT
ATOM      1  O   UNL     1      30.206  25.229  71.787  0.00  0.00    +0.000 OA
ATOM      2  C   UNL     1      31.293  25.101  71.219  0.00  0.00    +0.000 A 
ATOM      3  C   UNL     1      32.323  26.118  71.138  0.00  0.00    +0.000 A 
ATOM      4  C   UNL     1      33.540  25.802  70.495  0.00  0.00    +0.000 A 
ATOM      5  O   UNL     1      33.771  24.624  69.878  0.00  0.00    +0.000 OA
ATOM      6  C   UNL     1      32.825  23.616  69.933  0.00  0.00    +0.000 A 
ATOM      7  C   UNL     1      33.172  22.423  69.317  0.00  0.00    +0.000 A 
ATOM      8  C   UNL     1      32.265  21.382  69.371  0.00  0.00    +0.000 A 
ATOM      9  C   UNL     1      31.046  21.529  70.018  0.00  0.00    +0.000 A 
ATOM     10  C   UNL     1      30.723  22.728  70.617  0.00  0.00    +0.000 A 
ATOM     11  C   UNL     1      31.620  23.803  70.578  0.00  0.00    +0.000 A 
ENDROOT
BRANCH   4  12
ATOM     12  C   UNL     1      34.648  26.841  70.499  0.00  0.00    +0.000 A 
ATOM     13  C   UNL     1      35.894  26.502  69.999  0.00  0.00    +0.000 A 
ATOM     14  C   UNL     1      36.913  27.432  70.315  0.00  0.00    +0.000 A 
ATOM     15  C   UNL     1      36.697  28.671  70.718  0.00  0.00    +0.000 A 
ATOM     16  C   UNL     1      35.428  28.962  71.136  0.00  0.00    +0.000 A 
ATOM     17  C   UNL     1      34.406  28.056  70.980  0.00  0.00    +0.000 A 
ENDBRANCH   4  12
BRANCH   8  18
ATOM     18  O   UNL     1      32.585  20.143  68.756  0.00  0.00    +0.000 OA
ATOM     19  C   UNL     1      31.659  19.067  68.800  0.00  0.00    +0.000 C 
ENDBRANCH   8  18
BRANCH  10  20
ATOM     20  O   UNL     1      29.474  22.874  71.276  0.00  0.00    +0.000 OA
ATOM     21  C   UNL     1      28.282  22.428  70.646  0.00  0.00    +0.000 C 
ENDBRANCH  10  20
TORSDOF 3
ENDMDL
MODEL 7
REMARK VINA RESULT:    -7.906      4.793      9.446
REMARK INTER + INTRA:          -9.710
REMARK INTER:                  -9.303
REMARK INTRA:                  -0.407
REMARK UNBOUND:                -0.418
REMARK  Name = 
REMARK  5 active torsions:
REMARK  status: ('A' for Active; 'I' for Inactive)
REMARK    1  A    between atoms: C_4  and  C_5
REMARK    2  A    between atoms: C_14  and  O_15
REMARK    3  A    between atoms: O_15  and  C_16
REMARK    4  A    between atoms: C_18  and  O_19
REMARK    5  A    between atoms: O_19  and  C_20
REMARK                            x       y       z     vdW  Elec       q    Type
REMARK                         _______ _______ _______ _____ _____    ______ ____
ROOT
ATOM      1  O   UNL     1      33.582  22.104  67.688  0.00  0.00    +0.000 OA
ATOM      2  C   UNL     1      32.848  21.686  68.586  0.00  0.00    +0.000 A 
ATOM      3  C   UNL     1      32.327  20.337  68.684  0.00  0.00    +0.000 A 
ATOM      4  C   UNL     1      31.539  19.994  69.805  0.00  0.00    +0.000 A 
ATOM      5  O   UNL     1      31.175  20.878  70.758  0.00  0.00    +0.000 OA
ATOM      6  C   UNL     1      31.653  22.176  70.717  0.00  0.00    +0.000 A 
ATOM      7  C   UNL     1      31.271  22.997  71.766  0.00  0.00    +0.000 A 
ATOM      8  C   UNL     1      31.747  24.294  71.776  0.00  0.00    +0.000 A 
ATOM      9  C   UNL     1      32.578  24.759  70.766  0.00  0.00    +0.000 A 
ATOM     10  C   UNL     1      32.938  23.922  69.731  0.00  0.00    +0.000 A 
ATOM     11  C   UNL     1      32.471  22.603  69.691  0.00  0.00    +0.000 A 
ENDROOT
BRANCH   4  12
ATOM     12  C   UNL     1      31.077  18.553  69.947  0.00  0.00    +0.000 A 
ATOM     13  C   UNL     1      29.959  18.131  69.246  0.00  0.00    +0.000 A 
ATOM     14  C   UNL     1      29.455  16.879  69.671  0.00  0.00    +0.000 A 
ATOM     15  C   UNL     1      30.134  16.002  70.388  0.00  0.00    +0.000 A 
ATOM     16  C   UNL     1      31.266  16.464  71.000  0.00  0.00    +0.000 A 
ATOM     17  C   UNL     1      31.750  17.723  70.736  0.00  0.00    +0.000 A 
ENDBRANCH   4  12
BRANCH   8  18
ATOM     18  O   UNL     1      31.381  25.165  72.836  0.00  0.00    +0.000 OA
ATOM     19  C   UNL     1      31.939  24.986  74.129  0.00  0.00    +0.000 C 
ENDBRANCH   8  18
BRANCH  10  20
ATOM     20  O   UNL     1      33.787  24.402  68.699  0.00  0.00    +0.000 OA
ATOM     21  C   UNL     1      33.511  25.646  68.073  0.00  0.00    +0.000 C 
ENDBRANCH  10  20
TORSDOF 3
ENDMDL
MODEL 8
REMARK VINA RESULT:    -7.854      1.562      5.884
REMARK INTER + INTRA:          -9.649
REMARK INTER:                  -9.231
REMARK INTRA:                  -0.418
REMARK UNBOUND:                -0.418
REMARK  Name = 
REMARK  5 active torsions:
REMARK  status: ('A' for Active; 'I' for Inactive)
REMARK    1  A    between atoms: C_4  and  C_5
REMARK    2  A    between atoms: C_14  and  O_15
REMARK    3  A    between atoms: O_15  and  C_16
REMARK    4  A    between atoms: C_18  and  O_19
REMARK    5  A    between atoms: O_19  and  C_20
REMARK                            x       y       z     vdW  Elec       q    Type
REMARK                         _______ _______ _______ _____ _____    ______ ____
ROOT
ATOM      1  O   UNL     1      32.815  24.944  67.005  0.00  0.00    +0.000 OA
ATOM      2  C   UNL     1      32.625  26.128  67.294  0.00  0.00    +0.000 A 
ATOM      3  C   UNL     1      31.721  27.025  66.603  0.00  0.00    +0.000 A 
ATOM      4  C   UNL     1      31.572  28.344  67.087  0.00  0.00    +0.000 A 
ATOM      5  O   UNL     1      32.289  28.844  68.115  0.00  0.00    +0.000 OA
ATOM      6  C   UNL     1      33.159  28.028  68.815  0.00  0.00    +0.000 A 
ATOM      7  C   UNL     1      33.811  28.613  69.889  0.00  0.00    +0.000 A 
ATOM      8  C   UNL     1      34.670  27.824  70.630  0.00  0.00    +0.000 A 
ATOM      9  C   UNL     1      34.875  26.490  70.305  0.00  0.00    +0.000 A 
ATOM     10  C   UNL     1      34.219  25.934  69.228  0.00  0.00    +0.000 A 
ATOM     11  C   UNL     1      33.343  26.708  68.456  0.00  0.00    +0.000 A 
ENDROOT
BRANCH   4  12
ATOM     12  C   UNL     1      30.551  29.247  66.414  0.00  0.00    +0.000 A 
ATOM     13  C   UNL     1      30.918  30.537  66.064  0.00  0.00    +0.000 A 
ATOM     14  C   UNL     1      29.827  31.369  65.721  0.00  0.00    +0.000 A 
ATOM     15  C   UNL     1      28.623  30.932  65.398  0.00  0.00    +0.000 A 
ATOM     16  C   UNL     1      28.346  29.630  65.709  0.00  0.00    +0.000 A 
ATOM     17  C   UNL     1      29.328  28.789  66.172  0.00  0.00    +0.000 A 
ENDBRANCH   4  12
BRANCH   8  18
ATOM     18  O   UNL     1      35.354  28.387  71.740  0.00  0.00    +0.000 OA
ATOM     19  C   UNL     1      35.644  29.777  71.766  0.00  0.00    +0.000 C 
ENDBRANCH   8  18
BRANCH  10  20
ATOM     20  O   UNL     1      34.433  24.570  68.899  0.00  0.00    +0.000 OA
ATOM     21  C   UNL     1      34.110  23.554  69.837  0.00  0.00    +0.000 C 
ENDBRANCH  10  20
TORSDOF 3
ENDMDL
MODEL 9
REMARK VINA RESULT:    -7.733      3.913      8.063
REMARK INTER + INTRA:          -9.506
REMARK INTER:                  -9.072
REMARK INTRA:                  -0.434
REMARK UNBOUND:                -0.418
REMARK  Name = 
REMARK  5 active torsions:
REMARK  status: ('A' for Active; 'I' for Inactive)
REMARK    1  A    between atoms: C_4  and  C_5
REMARK    2  A    between atoms: C_14  and  O_15
REMARK    3  A    between atoms: O_15  and  C_16
REMARK    4  A    between atoms: C_18  and  O_19
REMARK    5  A    between atoms: O_19  and  C_20
REMARK                            x       y       z     vdW  Elec       q    Type
REMARK                         _______ _______ _______ _____ _____    ______ ____
ROOT
ATOM      1  O   UNL     1      30.861  24.492  72.245  0.00  0.00    +0.000 OA
ATOM      2  C   UNL     1      31.297  23.766  71.349  0.00  0.00    +0.000 A 
ATOM      3  C   UNL     1      31.343  22.318  71.388  0.00  0.00    +0.000 A 
ATOM      4  C   UNL     1      31.824  21.623  70.257  0.00  0.00    +0.000 A 
ATOM      5  O   UNL     1      32.323  22.236  69.164  0.00  0.00    +0.000 OA
ATOM      6  C   UNL     1      32.295  23.616  69.070  0.00  0.00    +0.000 A 
ATOM      7  C   UNL     1      32.778  24.156  67.888  0.00  0.00    +0.000 A 
ATOM      8  C   UNL     1      32.745  25.529  67.745  0.00  0.00    +0.000 A 
ATOM      9  C   UNL     1      32.247  26.342  68.754  0.00  0.00    +0.000 A 
ATOM     10  C   UNL     1      31.778  25.780  69.923  0.00  0.00    +0.000 A 
ATOM     11  C   UNL     1      31.800  24.391  70.099  0.00  0.00    +0.000 A 
ENDROOT
BRANCH   4  12
ATOM     12  C   UNL     1      31.778  20.104  70.272  0.00  0.00    +0.000 A 
ATOM     13  C   UNL     1      31.401  19.429  69.122  0.00  0.00    +0.000 A 
ATOM     14  C   UNL     1      31.113  18.059  69.330  0.00  0.00    +0.000 A 
ATOM     15  C   UNL     1      31.492  17.366  70.389  0.00  0.00    +0.000 A 
ATOM     16  C   UNL     1      31.918  18.089  71.468  0.00  0.00    +0.000 A 
ATOM     17  C   UNL     1      32.099  19.448  71.381  0.00  0.00    +0.000 A 
ENDBRANCH   4  12
BRANCH   8  18
ATOM     18  O   UNL     1      33.228  26.120  66.547  0.00  0.00    +0.000 OA
ATOM     19  C   UNL     1      32.762  27.400  66.148  0.00  0.00    +0.000 C 
ENDBRANCH   8  18
BRANCH  10  20
ATOM     20  O   UNL     1      31.270  26.615  70.953  0.00  0.00    +0.000 OA
ATOM     21  C   UNL     1      31.174  28.017  70.748  0.00  0.00    +0.000 C 
ENDBRANCH  10  20
TORSDOF 3
ENDMDL
