MODEL 1
REMARK VINA RESULT:    -7.641      0.000      0.000
REMARK INTER + INTRA:           9.927
REMARK INTER:                  -9.063
REMARK INTRA:                  18.990
REMARK UNBOUND:                18.908
REMARK  Name = 
REMARK  5 active torsions:
REMARK  status: ('A' for Active; 'I' for Inactive)
REMARK    1  A    between atoms: C_1  and  O_2
REMARK    2  A    between atoms: O_2  and  C_3
REMARK    3  A    between atoms: C_5  and  O_6
REMARK    4  A    between atoms: O_6  and  C_7
REMARK    5  A    between atoms: C_9  and  C_10
REMARK                            x       y       z     vdW  Elec       q    Type
REMARK                         _______ _______ _______ _____ _____    ______ ____
ROOT
ATOM      1  C   UNL     1      29.833  23.814  68.394  0.00  0.00    +0.000 A 
ATOM      2  C   UNL     1      30.663  23.249  67.360  0.00  0.00    +0.000 A 
ATOM      3  C   UNL     1      32.078  23.518  67.345  0.00  0.00    +0.000 A 
ATOM      4  O   UNL     1      32.809  23.019  66.434  0.00  0.00    +0.000 OA
ATOM      5  C   UNL     1      32.695  24.398  68.419  0.00  0.00    +0.000 A 
ATOM      6  C   UNL     1      33.603  25.378  68.054  0.00  0.00    +0.000 A 
ATOM      7  C   UNL     1      34.322  25.928  69.142  0.00  0.00    +0.000 A 
ATOM      8  C   UNL     1      33.959  25.826  70.407  0.00  0.00    +0.000 A 
ATOM      9  C   UNL     1      33.009  24.886  70.694  0.00  0.00    +0.000 A 
ATOM     10  C   UNL     1      32.356  24.213  69.690  0.00  0.00    +0.000 A 
ATOM     11  O   UNL     1      28.511  23.563  68.408  0.00  0.00    +0.000 OA
ENDROOT
BRANCH   1  16
ATOM     12  C   UNL     1      31.070  24.974  71.715  0.00  0.00    +0.000 A 
ATOM     13  C   UNL     1      31.535  26.253  71.457  0.00  0.00    +0.000 A 
ATOM     14  C   UNL     1      31.208  26.733  70.167  0.00  0.00    +0.000 A 
ATOM     15  C   UNL     1      30.833  25.970  69.157  0.00  0.00    +0.000 A 
ATOM     16  C   UNL     1      30.451  24.694  69.467  0.00  0.00    +0.000 A 
ATOM     17  C   UNL     1      30.616  24.197  70.738  0.00  0.00    +0.000 A 
BRANCH  12  19
ATOM     18  C   UNL     1      31.919  24.983  74.024  0.00  0.00    +0.000 C 
ATOM     19  O   UNL     1      31.185  24.350  72.985  0.00  0.00    +0.000 OA
ENDBRANCH  12  19
BRANCH  14  20
ATOM     20  O   UNL     1      31.291  28.133  69.943  0.00  0.00    +0.000 OA
ATOM     21  C   UNL     1      31.725  28.624  68.682  0.00  0.00    +0.000 C 
ENDBRANCH  14  20
ENDBRANCH   1  16
TORSDOF 3
ENDMDL
MODEL 2
REMARK VINA RESULT:    -7.562      1.977      5.212
REMARK INTER + INTRA:          10.019
REMARK INTER:                  -8.982
REMARK INTRA:                  19.001
REMARK UNBOUND:                18.908
REMARK  Name = 
REMARK  5 active torsions:
REMARK  status: ('A' for Active; 'I' for Inactive)
REMARK    1  A    between atoms: C_1  and  O_2
REMARK    2  A    between atoms: O_2  and  C_3
REMARK    3  A    between atoms: C_5  and  O_6
REMARK    4  A    between atoms: O_6  and  C_7
REMARK    5  A    between atoms: C_9  and  C_10
REMARK                            x       y       z     vdW  Elec       q    Type
REMARK                         _______ _______ _______ _____ _____    ______ ____
ROOT
ATOM      1  C   UNL     1      30.736  25.652  68.541  0.00  0.00    +0.000 A 
ATOM      2  C   UNL     1      30.583  25.895  69.953  0.00  0.00    +0.000 A 
ATOM      3  C   UNL     1      30.849  24.841  70.898  0.00  0.00    +0.000 A 
ATOM      4  O   UNL     1      30.715  25.056  72.143  0.00  0.00    +0.000 OA
ATOM      5  C   UNL     1      31.290  23.473  70.406  0.00  0.00    +0.000 A 
ATOM      6  C   UNL     1      30.710  22.337  70.947  0.00  0.00    +0.000 A 
ATOM      7  C   UNL     1      31.393  21.139  70.634  0.00  0.00    +0.000 A 
ATOM      8  C   UNL     1      32.266  21.010  69.651  0.00  0.00    +0.000 A 
ATOM      9  C   UNL     1      32.751  22.168  69.112  0.00  0.00    +0.000 A 
ATOM     10  C   UNL     1      32.224  23.386  69.466  0.00  0.00    +0.000 A 
ATOM     11  O   UNL     1      30.487  26.636  67.658  0.00  0.00    +0.000 OA
ENDROOT
BRANCH   1  16
ATOM     12  C   UNL     1      32.845  22.946  67.082  0.00  0.00    +0.000 A 
ATOM     13  C   UNL     1      32.018  21.836  67.118  0.00  0.00    +0.000 A 
ATOM     14  C   UNL     1      30.679  22.130  67.469  0.00  0.00    +0.000 A 
ATOM     15  C   UNL     1      30.287  23.245  68.058  0.00  0.00    +0.000 A 
ATOM     16  C   UNL     1      31.176  24.283  68.049  0.00  0.00    +0.000 A 
ATOM     17  C   UNL     1      32.463  24.107  67.599  0.00  0.00    +0.000 A 
BRANCH  12  19
ATOM     18  C   UNL     1      34.826  21.634  66.441  0.00  0.00    +0.000 C 
ATOM     19  O   UNL     1      34.194  22.891  66.640  0.00  0.00    +0.000 OA
ENDBRANCH  12  19
BRANCH  14  20
ATOM     20  O   UNL     1      29.689  21.159  67.166  0.00  0.00    +0.000 OA
ATOM     21  C   UNL     1      28.616  20.933  68.071  0.00  0.00    +0.000 C 
ENDBRANCH  14  20
ENDBRANCH   1  16
TORSDOF 3
ENDMDL
MODEL 3
REMARK VINA RESULT:    -7.497      1.732      4.282
REMARK INTER + INTRA:          10.095
REMARK INTER:                  -8.850
REMARK INTRA:                  18.945
REMARK UNBOUND:                18.908
REMARK  Name = 
REMARK  5 active torsions:
REMARK  status: ('A' for Active; 'I' for Inactive)
REMARK    1  A    between atoms: C_1  and  O_2
REMARK    2  A    between atoms: O_2  and  C_3
REMARK    3  A    between atoms: C_5  and  O_6
REMARK    4  A    between atoms: O_6  and  C_7
REMARK    5  A    between atoms: C_9  and  C_10
REMARK                            x       y       z     vdW  Elec       q    Type
REMARK                         _______ _______ _______ _____ _____    ______ ____
ROOT
ATOM      1  C   UNL     1      32.159  24.129  67.526  0.00  0.00    +0.000 A 
ATOM      2  C   UNL     1      31.060  23.435  68.147  0.00  0.00    +0.000 A 
ATOM      3  C   UNL     1      30.322  24.065  69.212  0.00  0.00    +0.000 A 
ATOM      4  O   UNL     1      29.352  23.453  69.759  0.00  0.00    +0.000 OA
ATOM      5  C   UNL     1      30.703  25.459  69.681  0.00  0.00    +0.000 A 
ATOM      6  C   UNL     1      30.780  25.721  71.039  0.00  0.00    +0.000 A 
ATOM      7  C   UNL     1      30.852  27.099  71.353  0.00  0.00    +0.000 A 
ATOM      8  C   UNL     1      31.179  28.047  70.495  0.00  0.00    +0.000 A 
ATOM      9  C   UNL     1      31.150  27.707  69.172  0.00  0.00    +0.000 A 
ATOM     10  C   UNL     1      30.955  26.403  68.782  0.00  0.00    +0.000 A 
ATOM     11  O   UNL     1      32.850  23.542  66.532  0.00  0.00    +0.000 OA
ENDROOT
BRANCH   1  16
ATOM     12  C   UNL     1      32.613  27.830  67.564  0.00  0.00    +0.000 A 
ATOM     13  C   UNL     1      33.233  28.067  68.780  0.00  0.00    +0.000 A 
ATOM     14  C   UNL     1      33.651  26.892  69.448  0.00  0.00    +0.000 A 
ATOM     15  C   UNL     1      33.206  25.679  69.179  0.00  0.00    +0.000 A 
ATOM     16  C   UNL     1      32.541  25.523  67.995  0.00  0.00    +0.000 A 
ATOM     17  C   UNL     1      32.213  26.611  67.221  0.00  0.00    +0.000 A 
BRANCH  12  19
ATOM     18  C   UNL     1      32.703  30.191  66.880  0.00  0.00    +0.000 C 
ATOM     19  O   UNL     1      32.223  28.869  66.679  0.00  0.00    +0.000 OA
ENDBRANCH  12  19
BRANCH  14  20
ATOM     20  O   UNL     1      34.614  27.029  70.483  0.00  0.00    +0.000 OA
ATOM     21  C   UNL     1      34.922  28.316  71.000  0.00  0.00    +0.000 C 
ENDBRANCH  14  20
ENDBRANCH   1  16
TORSDOF 3
ENDMDL
MODEL 4
REMARK VINA RESULT:    -7.496      2.745      5.420
REMARK INTER + INTRA:          10.097
REMARK INTER:                  -8.845
REMARK INTRA:                  18.942
REMARK UNBOUND:                18.908
REMARK  Name = 
REMARK  5 active torsions:
REMARK  status: ('A' for Active; 'I' for Inactive)
REMARK    1  A    between atoms: C_1  and  O_2
REMARK    2  A    between atoms: O_2  and  C_3
REMARK    3  A    between atoms: C_5  and  O_6
REMARK    4  A    between atoms: O_6  and  C_7
REMARK    5  A    between atoms: C_9  and  C_10
REMARK                            x       y       z     vdW  Elec       q    Type
REMARK                         _______ _______ _______ _____ _____    ______ ____
ROOT
ATOM      1  C   UNL     1      30.606  24.280  70.495  0.00  0.00    +0.000 A 
ATOM      2  C   UNL     1      31.157  25.239  69.572  0.00  0.00    +0.000 A 
ATOM      3  C   UNL     1      31.318  24.890  68.183  0.00  0.00    +0.000 A 
ATOM      4  O   UNL     1      31.803  25.737  67.369  0.00  0.00    +0.000 OA
ATOM      5  C   UNL     1      30.908  23.512  67.693  0.00  0.00    +0.000 A 
ATOM      6  C   UNL     1      31.753  22.813  66.847  0.00  0.00    +0.000 A 
ATOM      7  C   UNL     1      31.149  21.692  66.231  0.00  0.00    +0.000 A 
ATOM      8  C   UNL     1      30.036  21.116  66.649  0.00  0.00    +0.000 A 
ATOM      9  C   UNL     1      29.279  21.829  67.536  0.00  0.00    +0.000 A 
ATOM     10  C   UNL     1      29.746  23.000  68.082  0.00  0.00    +0.000 A 
ATOM     11  O   UNL     1      30.455  24.604  71.792  0.00  0.00    +0.000 OA
ENDROOT
BRANCH   1  16
ATOM     12  C   UNL     1      28.474  21.385  69.504  0.00  0.00    +0.000 A 
ATOM     13  C   UNL     1      29.395  20.413  69.150  0.00  0.00    +0.000 A 
ATOM     14  C   UNL     1      30.733  20.747  69.468  0.00  0.00    +0.000 A 
ATOM     15  C   UNL     1      31.157  21.969  69.730  0.00  0.00    +0.000 A 
ATOM     16  C   UNL     1      30.195  22.901  70.005  0.00  0.00    +0.000 A 
ATOM     17  C   UNL     1      28.862  22.608  69.845  0.00  0.00    +0.000 A 
BRANCH  12  19
ATOM     18  C   UNL     1      26.539  19.904  69.165  0.00  0.00    +0.000 C 
ATOM     19  O   UNL     1      27.071  21.203  69.383  0.00  0.00    +0.000 OA
ENDBRANCH  12  19
BRANCH  14  20
ATOM     20  O   UNL     1      31.685  19.694  69.505  0.00  0.00    +0.000 OA
ATOM     21  C   UNL     1      31.350  18.416  68.981  0.00  0.00    +0.000 C 
ENDBRANCH  14  20
ENDBRANCH   1  16
TORSDOF 3
ENDMDL
MODEL 5
REMARK VINA RESULT:    -7.460      1.737      3.473
REMARK INTER + INTRA:          10.139
REMARK INTER:                  -8.766
REMARK INTRA:                  18.905
REMARK UNBOUND:                18.908
REMARK  Name = 
REMARK  5 active torsions:
REMARK  status: ('A' for Active; 'I' for Inactive)
REMARK    1  A    between atoms: C_1  and  O_2
REMARK    2  A    between atoms: O_2  and  C_3
REMARK    3  A    between atoms: C_5  and  O_6
REMARK    4  A    between atoms: O_6  and  C_7
REMARK    5  A    between atoms: C_9  and  C_10
REMARK                            x       y       z     vdW  Elec       q    Type
REMARK                         _______ _______ _______ _____ _____    ______ ____
ROOT
ATOM      1  C   UNL     1      31.277  25.930  67.751  0.00  0.00    +0.000 A 
ATOM      2  C   UNL     1      32.602  25.778  67.208  0.00  0.00    +0.000 A 
ATOM      3  C   UNL     1      33.471  24.745  67.711  0.00  0.00    +0.000 A 
ATOM      4  O   UNL     1      34.640  24.610  67.232  0.00  0.00    +0.000 OA
ATOM      5  C   UNL     1      32.990  23.818  68.815  0.00  0.00    +0.000 A 
ATOM      6  C   UNL     1      33.829  23.538  69.880  0.00  0.00    +0.000 A 
ATOM      7  C   UNL     1      33.399  22.453  70.680  0.00  0.00    +0.000 A 
ATOM      8  C   UNL     1      32.173  21.963  70.680  0.00  0.00    +0.000 A 
ATOM      9  C   UNL     1      31.370  22.330  69.637  0.00  0.00    +0.000 A 
ATOM     10  C   UNL     1      31.774  23.289  68.739  0.00  0.00    +0.000 A 
ATOM     11  O   UNL     1      30.464  26.895  67.282  0.00  0.00    +0.000 OA
ENDROOT
BRANCH   1  16
ATOM     12  C   UNL     1      29.399  23.236  69.517  0.00  0.00    +0.000 A 
ATOM     13  C   UNL     1      29.868  23.315  70.818  0.00  0.00    +0.000 A 
ATOM     14  C   UNL     1      30.677  24.448  71.067  0.00  0.00    +0.000 A 
ATOM     15  C   UNL     1      31.255  25.176  70.130  0.00  0.00    +0.000 A 
ATOM     16  C   UNL     1      30.795  25.003  68.854  0.00  0.00    +0.000 A 
ATOM     17  C   UNL     1      29.903  24.002  68.556  0.00  0.00    +0.000 A 
BRANCH  12  19
ATOM     18  C   UNL     1      27.513  21.729  69.992  0.00  0.00    +0.000 C 
ATOM     19  O   UNL     1      28.477  22.246  69.085  0.00  0.00    +0.000 OA
ENDBRANCH  12  19
BRANCH  14  20
ATOM     20  O   UNL     1      30.884  24.826  72.420  0.00  0.00    +0.000 OA
ATOM     21  C   UNL     1      32.187  25.171  72.869  0.00  0.00    +0.000 C 
ENDBRANCH  14  20
ENDBRANCH   1  16
TORSDOF 3
ENDMDL
MODEL 6
REMARK VINA RESULT:    -7.451      1.723      4.311
REMARK INTER + INTRA:          10.149
REMARK INTER:                  -8.747
REMARK INTRA:                  18.897
REMARK UNBOUND:                18.908
REMARK  Name = 
REMARK  5 active torsions:
REMARK  status: ('A' for Active; 'I' for Inactive)
REMARK    1  A    between atoms: C_1  and  O_2
REMARK    2  A    between atoms: O_2  and  C_3
REMARK    3  A    between atoms: C_5  and  O_6
REMARK    4  A    between atoms: O_6  and  C_7
REMARK    5  A    between atoms: C_9  and  C_10
REMARK                            x       y       z     vdW  Elec       q    Type
REMARK                         _______ _______ _______ _____ _____    ______ ____
ROOT
ATOM      1  C   UNL     1      34.290  27.490  70.447  0.00  0.00    +0.000 A 
ATOM      2  C   UNL     1      33.823  28.511  69.544  0.00  0.00    +0.000 A 
ATOM      3  C   UNL     1      32.637  28.288  68.757  0.00  0.00    +0.000 A 
ATOM      4  O   UNL     1      32.225  29.189  67.962  0.00  0.00    +0.000 OA
ATOM      5  C   UNL     1      31.880  26.976  68.880  0.00  0.00    +0.000 A 
ATOM      6  C   UNL     1      31.453  26.330  67.732  0.00  0.00    +0.000 A 
ATOM      7  C   UNL     1      30.520  25.293  67.971  0.00  0.00    +0.000 A 
ATOM      8  C   UNL     1      30.322  24.720  69.144  0.00  0.00    +0.000 A 
ATOM      9  C   UNL     1      30.827  25.373  70.233  0.00  0.00    +0.000 A 
ATOM     10  C   UNL     1      31.639  26.471  70.084  0.00  0.00    +0.000 A 
ATOM     11  O   UNL     1      35.399  27.698  71.182  0.00  0.00    +0.000 OA
ENDROOT
BRANCH   1  16
ATOM     12  C   UNL     1      32.140  24.783  71.843  0.00  0.00    +0.000 A 
ATOM     13  C   UNL     1      32.164  23.810  70.856  0.00  0.00    +0.000 A 
ATOM     14  C   UNL     1      33.102  24.062  69.827  0.00  0.00    +0.000 A 
ATOM     15  C   UNL     1      33.650  25.238  69.584  0.00  0.00    +0.000 A 
ATOM     16  C   UNL     1      33.533  26.179  70.569  0.00  0.00    +0.000 A 
ATOM     17  C   UNL     1      32.740  25.954  71.669  0.00  0.00    +0.000 A 
BRANCH  12  19
ATOM     18  C   UNL     1      31.943  24.941  74.290  0.00  0.00    +0.000 C 
ATOM     19  O   UNL     1      31.360  24.668  73.023  0.00  0.00    +0.000 OA
ENDBRANCH  12  19
BRANCH  14  20
ATOM     20  O   UNL     1      33.477  22.973  68.996  0.00  0.00    +0.000 OA
ATOM     21  C   UNL     1      33.508  23.136  67.585  0.00  0.00    +0.000 C 
ENDBRANCH  14  20
ENDBRANCH   1  16
TORSDOF 3
ENDMDL
MODEL 7
REMARK VINA RESULT:    -7.449      2.709      5.150
REMARK INTER + INTRA:          10.152
REMARK INTER:                  -8.778
REMARK INTRA:                  18.930
REMARK UNBOUND:                18.908
REMARK  Name = 
REMARK  5 active torsions:
REMARK  status: ('A' for Active; 'I' for Inactive)
REMARK    1  A    between atoms: C_1  and  O_2
REMARK    2  A    between atoms: O_2  and  C_3
REMARK    3  A    between atoms: C_5  and  O_6
REMARK    4  A    between atoms: O_6  and  C_7
REMARK    5  A    between atoms: C_9  and  C_10
REMARK                            x       y       z     vdW  Elec       q    Type
REMARK                         _______ _______ _______ _____ _____    ______ ____
ROOT
ATOM      1  C   UNL     1      31.325  19.503  69.276  0.00  0.00    +0.000 A 
ATOM      2  C   UNL     1      29.896  19.378  69.142  0.00  0.00    +0.000 A 
ATOM      3  C   UNL     1      29.099  20.536  68.828  0.00  0.00    +0.000 A 
ATOM      4  O   UNL     1      27.838  20.424  68.709  0.00  0.00    +0.000 OA
ATOM      5  C   UNL     1      29.764  21.888  68.638  0.00  0.00    +0.000 A 
ATOM      6  C   UNL     1      29.207  23.008  69.233  0.00  0.00    +0.000 A 
ATOM      7  C   UNL     1      29.732  24.232  68.754  0.00  0.00    +0.000 A 
ATOM      8  C   UNL     1      30.868  24.352  68.094  0.00  0.00    +0.000 A 
ATOM      9  C   UNL     1      31.404  23.201  67.589  0.00  0.00    +0.000 A 
ATOM     10  C   UNL     1      30.868  21.975  67.905  0.00  0.00    +0.000 A 
ATOM     11  O   UNL     1      32.070  18.422  69.571  0.00  0.00    +0.000 OA
ENDROOT
BRANCH   1  16
ATOM     12  C   UNL     1      33.347  22.253  67.776  0.00  0.00    +0.000 A 
ATOM     13  C   UNL     1      33.241  23.276  68.704  0.00  0.00    +0.000 A 
ATOM     14  C   UNL     1      32.629  22.886  69.918  0.00  0.00    +0.000 A 
ATOM     15  C   UNL     1      31.895  21.799  70.072  0.00  0.00    +0.000 A 
ATOM     16  C   UNL     1      31.991  20.856  69.087  0.00  0.00    +0.000 A 
ATOM     17  C   UNL     1      32.682  21.114  67.927  0.00  0.00    +0.000 A 
BRANCH  12  19
ATOM     18  C   UNL     1      35.173  21.597  66.263  0.00  0.00    +0.000 C 
ATOM     19  O   UNL     1      34.032  22.398  66.540  0.00  0.00    +0.000 OA
ENDBRANCH  12  19
BRANCH  14  20
ATOM     20  O   UNL     1      32.815  23.723  71.050  0.00  0.00    +0.000 OA
ATOM     21  C   UNL     1      31.698  24.107  71.840  0.00  0.00    +0.000 C 
ENDBRANCH  14  20
ENDBRANCH   1  16
TORSDOF 3
ENDMDL
MODEL 8
REMARK VINA RESULT:    -7.430      1.579      4.177
REMARK INTER + INTRA:          10.174
REMARK INTER:                  -8.729
REMARK INTRA:                  18.903
REMARK UNBOUND:                18.908
REMARK  Name = 
REMARK  5 active torsions:
REMARK  status: ('A' for Active; 'I' for Inactive)
REMARK    1  A    between atoms: C_1  and  O_2
REMARK    2  A    between atoms: O_2  and  C_3
REMARK    3  A    between atoms: C_5  and  O_6
REMARK    4  A    between atoms: O_6  and  C_7
REMARK    5  A    between atoms: C_9  and  C_10
REMARK                            x       y       z     vdW  Elec       q    Type
REMARK                         _______ _______ _______ _____ _____    ______ ____
ROOT
ATOM      1  C   UNL     1      29.306  23.549  69.254  0.00  0.00    +0.000 A 
ATOM      2  C   UNL     1      29.465  23.071  70.604  0.00  0.00    +0.000 A 
ATOM      3  C   UNL     1      30.740  23.188  71.264  0.00  0.00    +0.000 A 
ATOM      4  O   UNL     1      30.879  22.766  72.454  0.00  0.00    +0.000 OA
ATOM      5  C   UNL     1      31.917  23.815  70.536  0.00  0.00    +0.000 A 
ATOM      6  C   UNL     1      33.158  23.205  70.600  0.00  0.00    +0.000 A 
ATOM      7  C   UNL     1      34.222  24.017  70.142  0.00  0.00    +0.000 A 
ATOM      8  C   UNL     1      34.072  25.094  69.392  0.00  0.00    +0.000 A 
ATOM      9  C   UNL     1      32.809  25.610  69.314  0.00  0.00    +0.000 A 
ATOM     10  C   UNL     1      31.737  24.939  69.851  0.00  0.00    +0.000 A 
ATOM     11  O   UNL     1      28.115  23.439  68.638  0.00  0.00    +0.000 OA
ENDROOT
BRANCH   1  16
ATOM     12  C   UNL     1      31.499  26.104  67.653  0.00  0.00    +0.000 A 
ATOM     13  C   UNL     1      32.574  25.363  67.191  0.00  0.00    +0.000 A 
ATOM     14  C   UNL     1      32.387  23.963  67.283  0.00  0.00    +0.000 A 
ATOM     15  C   UNL     1      31.481  23.377  68.044  0.00  0.00    +0.000 A 
ATOM     16  C   UNL     1      30.483  24.176  68.527  0.00  0.00    +0.000 A 
ATOM     17  C   UNL     1      30.528  25.540  68.362  0.00  0.00    +0.000 A 
BRANCH  12  19
ATOM     18  C   UNL     1      32.235  28.197  66.589  0.00  0.00    +0.000 C 
ATOM     19  O   UNL     1      31.431  27.518  67.544  0.00  0.00    +0.000 OA
ENDBRANCH  12  19
BRANCH  14  20
ATOM     20  O   UNL     1      33.234  23.132  66.503  0.00  0.00    +0.000 OA
ATOM     21  C   UNL     1      33.863  22.004  67.097  0.00  0.00    +0.000 C 
ENDBRANCH  14  20
ENDBRANCH   1  16
TORSDOF 3
ENDMDL
MODEL 9
REMARK VINA RESULT:    -7.336      2.050      4.518
REMARK INTER + INTRA:          10.285
REMARK INTER:                  -8.623
REMARK INTRA:                  18.908
REMARK UNBOUND:                18.908
REMARK  Name = 
REMARK  5 active torsions:
REMARK  status: ('A' for Active; 'I' for Inactive)
REMARK    1  A    between atoms: C_1  and  O_2
REMARK    2  A    between atoms: O_2  and  C_3
REMARK    3  A    between atoms: C_5  and  O_6
REMARK    4  A    between atoms: O_6  and  C_7
REMARK    5  A    between atoms: C_9  and  C_10
REMARK                            x       y       z     vdW  Elec       q    Type
REMARK                         _______ _______ _______ _____ _____    ______ ____
ROOT
ATOM      1  C   UNL     1      32.313  21.918  70.925  0.00  0.00    +0.000 A 
ATOM      2  C   UNL     1      30.912  22.028  71.239  0.00  0.00    +0.000 A 
ATOM      3  C   UNL     1      30.107  23.036  70.597  0.00  0.00    +0.000 A 
ATOM      4  O   UNL     1      28.871  23.132  70.874  0.00  0.00    +0.000 OA
ATOM      5  C   UNL     1      30.738  23.983  69.590  0.00  0.00    +0.000 A 
ATOM      6  C   UNL     1      30.447  25.335  69.656  0.00  0.00    +0.000 A 
ATOM      7  C   UNL     1      30.846  26.064  68.511  0.00  0.00    +0.000 A 
ATOM      8  C   UNL     1      31.719  25.636  67.617  0.00  0.00    +0.000 A 
ATOM      9  C   UNL     1      32.015  24.302  67.647  0.00  0.00    +0.000 A 
ATOM     10  C   UNL     1      31.555  23.499  68.662  0.00  0.00    +0.000 A 
ATOM     11  O   UNL     1      33.065  20.977  71.525  0.00  0.00    +0.000 OA
ENDROOT
BRANCH   1  16
ATOM     12  C   UNL     1      33.858  23.195  67.781  0.00  0.00    +0.000 A 
ATOM     13  C   UNL     1      34.112  24.526  68.063  0.00  0.00    +0.000 A 
ATOM     14  C   UNL     1      33.915  24.872  69.421  0.00  0.00    +0.000 A 
ATOM     15  C   UNL     1      33.222  24.152  70.284  0.00  0.00    +0.000 A 
ATOM     16  C   UNL     1      32.943  22.864  69.918  0.00  0.00    +0.000 A 
ATOM     17  C   UNL     1      33.227  22.415  68.650  0.00  0.00    +0.000 A 
BRANCH  12  19
ATOM     18  C   UNL     1      35.020  21.533  66.388  0.00  0.00    +0.000 C 
ATOM     19  O   UNL     1      34.105  22.613  66.509  0.00  0.00    +0.000 OA
ENDBRANCH  12  19
BRANCH  14  20
ATOM     20  O   UNL     1      34.502  26.078  69.887  0.00  0.00    +0.000 OA
ATOM     21  C   UNL     1      33.784  26.918  70.781  0.00  0.00    +0.000 C 
ENDBRANCH  14  20
ENDBRANCH   1  16
TORSDOF 3
ENDMDL
