MODEL 1
REMARK VINA RESULT:    -7.947      0.000      0.000
REMARK INTER + INTRA:          -9.274
REMARK INTER:                  -8.897
REMARK INTRA:                  -0.378
REMARK UNBOUND:                -0.398
REMARK  Name = 
REMARK  3 active torsions:
REMARK  status: ('A' for Active; 'I' for Inactive)
REMARK    1  A    between atoms: C_1  and  O_2
REMARK    2  A    between atoms: O_2  and  C_3
REMARK    3  A    between atoms: C_12  and  C_14
REMARK                            x       y       z     vdW  Elec       q    Type
REMARK                         _______ _______ _______ _____ _____    ______ ____
ROOT
ATOM      1  C   UNL     1      32.811  25.538  68.158  0.00  0.00    +0.000 A 
ATOM      2  C   UNL     1      31.733  25.892  67.377  0.00  0.00    +0.000 A 
ATOM      3  C   UNL     1      31.349  27.223  67.286  0.00  0.00    +0.000 A 
ATOM      4  C   UNL     1      32.034  28.209  67.970  0.00  0.00    +0.000 A 
ATOM      5  C   UNL     1      33.118  27.827  68.743  0.00  0.00    +0.000 A 
ATOM      6  C   UNL     1      33.525  26.514  68.864  0.00  0.00    +0.000 A 
ATOM      7  C   UNL     1      34.692  26.154  69.710  0.00  0.00    +0.000 A 
ATOM      8  O   UNL     1      35.026  24.969  69.793  0.00  0.00    +0.000 OA
ATOM      9  C   UNL     1      35.364  27.263  70.357  0.00  0.00    +0.000 A 
ATOM     10  C   UNL     1      34.891  28.572  70.123  0.00  0.00    +0.000 A 
ATOM     11  O   UNL     1      33.792  28.847  69.390  0.00  0.00    +0.000 OA
ENDROOT
BRANCH  10  12
ATOM     12  C   UNL     1      35.662  29.735  70.729  0.00  0.00    +0.000 A 
ATOM     13  C   UNL     1      36.416  29.527  71.873  0.00  0.00    +0.000 A 
ATOM     14  C   UNL     1      36.841  30.721  72.503  0.00  0.00    +0.000 A 
ATOM     15  C   UNL     1      36.864  31.907  71.923  0.00  0.00    +0.000 A 
ATOM     16  C   UNL     1      36.155  32.029  70.760  0.00  0.00    +0.000 A 
ATOM     17  C   UNL     1      35.599  30.929  70.153  0.00  0.00    +0.000 A 
ENDBRANCH  10  12
BRANCH   1  19
ATOM     18  C   UNL     1      32.724  23.241  67.283  0.00  0.00    +0.000 C 
ATOM     19  O   UNL     1      33.268  24.193  68.185  0.00  0.00    +0.000 OA
ENDBRANCH   1  19
TORSDOF 2
ENDMDL
MODEL 2
REMARK VINA RESULT:    -7.805      5.841     10.728
REMARK INTER + INTRA:          -9.116
REMARK INTER:                  -8.748
REMARK INTRA:                  -0.368
REMARK UNBOUND:                -0.398
REMARK  Name = 
REMARK  3 active torsions:
REMARK  status: ('A' for Active; 'I' for Inactive)
REMARK    1  A    between atoms: C_1  and  O_2
REMARK    2  A    between atoms: O_2  and  C_3
REMARK    3  A    between atoms: C_12  and  C_14
REMARK                            x       y       z     vdW  Elec       q    Type
REMARK                         _______ _______ _______ _____ _____    ______ ____
ROOT
ATOM      1  C   UNL     1      30.497  22.881  70.119  0.00  0.00    +0.000 A 
ATOM      2  C   UNL     1      29.459  23.568  69.528  0.00  0.00    +0.000 A 
ATOM      3  C   UNL     1      28.534  22.889  68.746  0.00  0.00    +0.000 A 
ATOM      4  C   UNL     1      28.633  21.525  68.550  0.00  0.00    +0.000 A 
ATOM      5  C   UNL     1      29.682  20.858  69.160  0.00  0.00    +0.000 A 
ATOM      6  C   UNL     1      30.626  21.499  69.938  0.00  0.00    +0.000 A 
ATOM      7  C   UNL     1      31.735  20.739  70.568  0.00  0.00    +0.000 A 
ATOM      8  O   UNL     1      32.558  21.347  71.256  0.00  0.00    +0.000 OA
ATOM      9  C   UNL     1      31.731  19.309  70.331  0.00  0.00    +0.000 A 
ATOM     10  C   UNL     1      30.688  18.752  69.559  0.00  0.00    +0.000 A 
ATOM     11  O   UNL     1      29.731  19.490  68.960  0.00  0.00    +0.000 OA
ENDROOT
BRANCH  10  12
ATOM     12  C   UNL     1      30.641  17.241  69.397  0.00  0.00    +0.000 A 
ATOM     13  C   UNL     1      31.823  16.539  69.227  0.00  0.00    +0.000 A 
ATOM     14  C   UNL     1      31.639  15.203  68.797  0.00  0.00    +0.000 A 
ATOM     15  C   UNL     1      30.502  14.538  68.886  0.00  0.00    +0.000 A 
ATOM     16  C   UNL     1      29.379  15.282  69.123  0.00  0.00    +0.000 A 
ATOM     17  C   UNL     1      29.467  16.620  69.421  0.00  0.00    +0.000 A 
ENDBRANCH  10  12
BRANCH   1  19
ATOM     18  C   UNL     1      31.083  24.850  71.472  0.00  0.00    +0.000 C 
ATOM     19  O   UNL     1      31.394  23.550  70.993  0.00  0.00    +0.000 OA
ENDBRANCH   1  19
TORSDOF 2
ENDMDL
MODEL 3
REMARK VINA RESULT:    -7.796      4.725      8.824
REMARK INTER + INTRA:          -9.106
REMARK INTER:                  -8.717
REMARK INTRA:                  -0.389
REMARK UNBOUND:                -0.398
REMARK  Name = 
REMARK  3 active torsions:
REMARK  status: ('A' for Active; 'I' for Inactive)
REMARK    1  A    between atoms: C_1  and  O_2
REMARK    2  A    between atoms: O_2  and  C_3
REMARK    3  A    between atoms: C_12  and  C_14
REMARK                            x       y       z     vdW  Elec       q    Type
REMARK                         _______ _______ _______ _____ _____    ______ ____
ROOT
ATOM      1  C   UNL     1      30.882  25.225  70.211  0.00  0.00    +0.000 A 
ATOM      2  C   UNL     1      30.730  25.886  69.011  0.00  0.00    +0.000 A 
ATOM      3  C   UNL     1      30.823  25.186  67.815  0.00  0.00    +0.000 A 
ATOM      4  C   UNL     1      31.065  23.826  67.805  0.00  0.00    +0.000 A 
ATOM      5  C   UNL     1      31.208  23.185  69.024  0.00  0.00    +0.000 A 
ATOM      6  C   UNL     1      31.130  23.847  70.233  0.00  0.00    +0.000 A 
ATOM      7  C   UNL     1      31.294  23.114  71.514  0.00  0.00    +0.000 A 
ATOM      8  O   UNL     1      31.217  23.741  72.573  0.00  0.00    +0.000 OA
ATOM      9  C   UNL     1      31.509  21.686  71.397  0.00  0.00    +0.000 A 
ATOM     10  C   UNL     1      31.522  21.105  70.111  0.00  0.00    +0.000 A 
ATOM     11  O   UNL     1      31.424  21.819  68.970  0.00  0.00    +0.000 OA
ENDROOT
BRANCH  10  12
ATOM     12  C   UNL     1      31.653  19.593  70.005  0.00  0.00    +0.000 A 
ATOM     13  C   UNL     1      31.439  18.977  68.782  0.00  0.00    +0.000 A 
ATOM     14  C   UNL     1      31.298  17.572  68.866  0.00  0.00    +0.000 A 
ATOM     15  C   UNL     1      31.681  16.841  69.897  0.00  0.00    +0.000 A 
ATOM     16  C   UNL     1      31.944  17.516  71.057  0.00  0.00    +0.000 A 
ATOM     17  C   UNL     1      31.970  18.889  71.085  0.00  0.00    +0.000 A 
ENDBRANCH  10  12
BRANCH   1  19
ATOM     18  C   UNL     1      30.679  27.333  71.460  0.00  0.00    +0.000 C 
ATOM     19  O   UNL     1      30.697  25.914  71.439  0.00  0.00    +0.000 OA
ENDBRANCH   1  19
TORSDOF 2
ENDMDL
MODEL 4
REMARK VINA RESULT:    -7.783      4.605      9.406
REMARK INTER + INTRA:          -9.091
REMARK INTER:                  -8.711
REMARK INTRA:                  -0.380
REMARK UNBOUND:                -0.398
REMARK  Name = 
REMARK  3 active torsions:
REMARK  status: ('A' for Active; 'I' for Inactive)
REMARK    1  A    between atoms: C_1  and  O_2
REMARK    2  A    between atoms: O_2  and  C_3
REMARK    3  A    between atoms: C_12  and  C_14
REMARK                            x       y       z     vdW  Elec       q    Type
REMARK                         _______ _______ _______ _____ _____    ______ ____
ROOT
ATOM      1  C   UNL     1      31.915  23.865  67.723  0.00  0.00    +0.000 A 
ATOM      2  C   UNL     1      30.921  24.814  67.837  0.00  0.00    +0.000 A 
ATOM      3  C   UNL     1      29.693  24.470  68.387  0.00  0.00    +0.000 A 
ATOM      4  C   UNL     1      29.447  23.184  68.829  0.00  0.00    +0.000 A 
ATOM      5  C   UNL     1      30.465  22.253  68.709  0.00  0.00    +0.000 A 
ATOM      6  C   UNL     1      31.695  22.554  68.160  0.00  0.00    +0.000 A 
ATOM      7  C   UNL     1      32.753  21.517  68.049  0.00  0.00    +0.000 A 
ATOM      8  O   UNL     1      33.840  21.825  67.554  0.00  0.00    +0.000 OA
ATOM      9  C   UNL     1      32.409  20.211  68.572  0.00  0.00    +0.000 A 
ATOM     10  C   UNL     1      31.137  20.027  69.157  0.00  0.00    +0.000 A 
ATOM     11  O   UNL     1      30.186  20.984  69.186  0.00  0.00    +0.000 OA
ENDROOT
BRANCH  10  12
ATOM     12  C   UNL     1      30.823  18.680  69.788  0.00  0.00    +0.000 A 
ATOM     13  C   UNL     1      31.687  18.155  70.736  0.00  0.00    +0.000 A 
ATOM     14  C   UNL     1      31.455  16.791  71.030  0.00  0.00    +0.000 A 
ATOM     15  C   UNL     1      30.339  16.143  70.747  0.00  0.00    +0.000 A 
ATOM     16  C   UNL     1      29.495  16.746  69.856  0.00  0.00    +0.000 A 
ATOM     17  C   UNL     1      29.725  18.028  69.421  0.00  0.00    +0.000 A 
ENDBRANCH  10  12
BRANCH   1  19
ATOM     18  C   UNL     1      33.851  25.381  67.763  0.00  0.00    +0.000 C 
ATOM     19  O   UNL     1      33.202  24.229  67.246  0.00  0.00    +0.000 OA
ENDBRANCH   1  19
TORSDOF 2
ENDMDL
MODEL 5
REMARK VINA RESULT:    -7.721      2.529      3.395
REMARK INTER + INTRA:          -9.022
REMARK INTER:                  -8.663
REMARK INTRA:                  -0.359
REMARK UNBOUND:                -0.398
REMARK  Name = 
REMARK  3 active torsions:
REMARK  status: ('A' for Active; 'I' for Inactive)
REMARK    1  A    between atoms: C_1  and  O_2
REMARK    2  A    between atoms: O_2  and  C_3
REMARK    3  A    between atoms: C_12  and  C_14
REMARK                            x       y       z     vdW  Elec       q    Type
REMARK                         _______ _______ _______ _____ _____    ______ ____
ROOT
ATOM      1  C   UNL     1      32.226  23.257  70.669  0.00  0.00    +0.000 A 
ATOM      2  C   UNL     1      31.434  23.085  71.784  0.00  0.00    +0.000 A 
ATOM      3  C   UNL     1      31.456  24.029  72.803  0.00  0.00    +0.000 A 
ATOM      4  C   UNL     1      32.262  25.148  72.718  0.00  0.00    +0.000 A 
ATOM      5  C   UNL     1      33.043  25.299  71.585  0.00  0.00    +0.000 A 
ATOM      6  C   UNL     1      33.055  24.379  70.555  0.00  0.00    +0.000 A 
ATOM      7  C   UNL     1      33.914  24.584  69.361  0.00  0.00    +0.000 A 
ATOM      8  O   UNL     1      33.897  23.740  68.462  0.00  0.00    +0.000 OA
ATOM      9  C   UNL     1      34.695  25.805  69.353  0.00  0.00    +0.000 A 
ATOM     10  C   UNL     1      34.569  26.699  70.437  0.00  0.00    +0.000 A 
ATOM     11  O   UNL     1      33.817  26.445  71.528  0.00  0.00    +0.000 OA
ENDROOT
BRANCH  10  12
ATOM     12  C   UNL     1      35.319  28.020  70.373  0.00  0.00    +0.000 A 
ATOM     13  C   UNL     1      34.645  29.166  69.984  0.00  0.00    +0.000 A 
ATOM     14  C   UNL     1      35.494  30.256  69.680  0.00  0.00    +0.000 A 
ATOM     15  C   UNL     1      36.757  30.348  70.054  0.00  0.00    +0.000 A 
ATOM     16  C   UNL     1      37.347  29.195  70.492  0.00  0.00    +0.000 A 
ATOM     17  C   UNL     1      36.609  28.054  70.689  0.00  0.00    +0.000 A 
ENDBRANCH  10  12
BRANCH   1  19
ATOM     18  C   UNL     1      30.878  22.017  69.027  0.00  0.00    +0.000 C 
ATOM     19  O   UNL     1      32.142  22.346  69.583  0.00  0.00    +0.000 OA
ENDBRANCH   1  19
TORSDOF 2
ENDMDL
MODEL 6
REMARK VINA RESULT:    -7.671      2.246      2.851
REMARK INTER + INTRA:          -8.966
REMARK INTER:                  -8.585
REMARK INTRA:                  -0.381
REMARK UNBOUND:                -0.398
REMARK  Name = 
REMARK  3 active torsions:
REMARK  status: ('A' for Active; 'I' for Inactive)
REMARK    1  A    between atoms: C_1  and  O_2
REMARK    2  A    between atoms: O_2  and  C_3
REMARK    3  A    between atoms: C_12  and  C_14
REMARK                            x       y       z     vdW  Elec       q    Type
REMARK                         _______ _______ _______ _____ _____    ______ ____
ROOT
ATOM      1  C   UNL     1      31.683  24.787  69.980  0.00  0.00    +0.000 A 
ATOM      2  C   UNL     1      31.260  24.057  71.069  0.00  0.00    +0.000 A 
ATOM      3  C   UNL     1      31.773  24.331  72.330  0.00  0.00    +0.000 A 
ATOM      4  C   UNL     1      32.707  25.332  72.516  0.00  0.00    +0.000 A 
ATOM      5  C   UNL     1      33.110  26.054  71.405  0.00  0.00    +0.000 A 
ATOM      6  C   UNL     1      32.630  25.807  70.135  0.00  0.00    +0.000 A 
ATOM      7  C   UNL     1      33.097  26.607  68.975  0.00  0.00    +0.000 A 
ATOM      8  O   UNL     1      32.644  26.356  67.856  0.00  0.00    +0.000 OA
ATOM      9  C   UNL     1      34.051  27.656  69.280  0.00  0.00    +0.000 A 
ATOM     10  C   UNL     1      34.437  27.853  70.623  0.00  0.00    +0.000 A 
ATOM     11  O   UNL     1      34.028  27.064  71.638  0.00  0.00    +0.000 OA
ENDROOT
BRANCH  10  12
ATOM     12  C   UNL     1      35.363  29.016  70.942  0.00  0.00    +0.000 A 
ATOM     13  C   UNL     1      35.086  29.824  72.033  0.00  0.00    +0.000 A 
ATOM     14  C   UNL     1      35.831  31.027  72.059  0.00  0.00    +0.000 A 
ATOM     15  C   UNL     1      36.932  31.240  71.362  0.00  0.00    +0.000 A 
ATOM     16  C   UNL     1      37.185  30.367  70.340  0.00  0.00    +0.000 A 
ATOM     17  C   UNL     1      36.421  29.238  70.171  0.00  0.00    +0.000 A 
ENDBRANCH  10  12
BRANCH   1  19
ATOM     18  C   UNL     1      29.758  24.116  68.604  0.00  0.00    +0.000 C 
ATOM     19  O   UNL     1      31.097  24.576  68.703  0.00  0.00    +0.000 OA
ENDBRANCH   1  19
TORSDOF 2
ENDMDL
MODEL 7
REMARK VINA RESULT:    -7.566      3.913      8.603
REMARK INTER + INTRA:          -8.848
REMARK INTER:                  -8.451
REMARK INTRA:                  -0.398
REMARK UNBOUND:                -0.398
REMARK  Name = 
REMARK  3 active torsions:
REMARK  status: ('A' for Active; 'I' for Inactive)
REMARK    1  A    between atoms: C_1  and  O_2
REMARK    2  A    between atoms: O_2  and  C_3
REMARK    3  A    between atoms: C_12  and  C_14
REMARK                            x       y       z     vdW  Elec       q    Type
REMARK                         _______ _______ _______ _____ _____    ______ ____
ROOT
ATOM      1  C   UNL     1      33.214  24.946  68.509  0.00  0.00    +0.000 A 
ATOM      2  C   UNL     1      33.449  25.821  69.548  0.00  0.00    +0.000 A 
ATOM      3  C   UNL     1      33.296  25.396  70.861  0.00  0.00    +0.000 A 
ATOM      4  C   UNL     1      32.912  24.100  71.149  0.00  0.00    +0.000 A 
ATOM      5  C   UNL     1      32.689  23.240  70.087  0.00  0.00    +0.000 A 
ATOM      6  C   UNL     1      32.822  23.627  68.768  0.00  0.00    +0.000 A 
ATOM      7  C   UNL     1      32.567  22.668  67.663  0.00  0.00    +0.000 A 
ATOM      8  O   UNL     1      32.698  23.051  66.499  0.00  0.00    +0.000 OA
ATOM      9  C   UNL     1      32.204  21.325  68.070  0.00  0.00    +0.000 A 
ATOM     10  C   UNL     1      32.144  21.026  69.448  0.00  0.00    +0.000 A 
ATOM     11  O   UNL     1      32.330  21.945  70.418  0.00  0.00    +0.000 OA
ENDROOT
BRANCH  10  12
ATOM     12  C   UNL     1      31.856  19.591  69.862  0.00  0.00    +0.000 A 
ATOM     13  C   UNL     1      32.041  19.214  71.182  0.00  0.00    +0.000 A 
ATOM     14  C   UNL     1      32.028  17.814  71.386  0.00  0.00    +0.000 A 
ATOM     15  C   UNL     1      31.537  16.938  70.529  0.00  0.00    +0.000 A 
ATOM     16  C   UNL     1      31.312  17.390  69.258  0.00  0.00    +0.000 A 
ATOM     17  C   UNL     1      31.431  18.723  68.951  0.00  0.00    +0.000 A 
ENDBRANCH  10  12
BRANCH   1  19
ATOM     18  C   UNL     1      32.969  26.592  66.699  0.00  0.00    +0.000 C 
ATOM     19  O   UNL     1      33.456  25.344  67.167  0.00  0.00    +0.000 OA
ENDBRANCH   1  19
TORSDOF 2
ENDMDL
MODEL 8
REMARK VINA RESULT:    -7.503      5.156     10.221
REMARK INTER + INTRA:          -8.779
REMARK INTER:                  -8.380
REMARK INTRA:                  -0.398
REMARK UNBOUND:                -0.398
REMARK  Name = 
REMARK  3 active torsions:
REMARK  status: ('A' for Active; 'I' for Inactive)
REMARK    1  A    between atoms: C_1  and  O_2
REMARK    2  A    between atoms: O_2  and  C_3
REMARK    3  A    between atoms: C_12  and  C_14
REMARK                            x       y       z     vdW  Elec       q    Type
REMARK                         _______ _______ _______ _____ _____    ______ ____
ROOT
ATOM      1  C   UNL     1      33.035  23.044  70.010  0.00  0.00    +0.000 A 
ATOM      2  C   UNL     1      33.562  23.645  68.886  0.00  0.00    +0.000 A 
ATOM      3  C   UNL     1      33.673  22.927  67.703  0.00  0.00    +0.000 A 
ATOM      4  C   UNL     1      33.258  21.611  67.628  0.00  0.00    +0.000 A 
ATOM      5  C   UNL     1      32.727  21.034  68.769  0.00  0.00    +0.000 A 
ATOM      6  C   UNL     1      32.608  21.712  69.966  0.00  0.00    +0.000 A 
ATOM      7  C   UNL     1      32.035  21.047  71.164  0.00  0.00    +0.000 A 
ATOM      8  O   UNL     1      31.944  21.686  72.215  0.00  0.00    +0.000 OA
ATOM      9  C   UNL     1      31.598  19.678  70.973  0.00  0.00    +0.000 A 
ATOM     10  C   UNL     1      31.722  19.098  69.692  0.00  0.00    +0.000 A 
ATOM     11  O   UNL     1      32.301  19.723  68.645  0.00  0.00    +0.000 OA
ENDROOT
BRANCH  10  12
ATOM     12  C   UNL     1      31.173  17.696  69.480  0.00  0.00    +0.000 A 
ATOM     13  C   UNL     1      30.397  17.114  70.469  0.00  0.00    +0.000 A 
ATOM     14  C   UNL     1      30.193  15.725  70.294  0.00  0.00    +0.000 A 
ATOM     15  C   UNL     1      30.381  15.078  69.159  0.00  0.00    +0.000 A 
ATOM     16  C   UNL     1      31.098  15.733  68.196  0.00  0.00    +0.000 A 
ATOM     17  C   UNL     1      31.447  17.053  68.351  0.00  0.00    +0.000 A 
ENDBRANCH  10  12
BRANCH   1  19
ATOM     18  C   UNL     1      32.415  25.151  71.118  0.00  0.00    +0.000 C 
ATOM     19  O   UNL     1      32.834  23.796  71.197  0.00  0.00    +0.000 OA
ENDBRANCH   1  19
TORSDOF 2
ENDMDL
MODEL 9
REMARK VINA RESULT:    -7.477      5.492     10.054
REMARK INTER + INTRA:          -8.749
REMARK INTER:                  -8.378
REMARK INTRA:                  -0.371
REMARK UNBOUND:                -0.398
REMARK  Name = 
REMARK  3 active torsions:
REMARK  status: ('A' for Active; 'I' for Inactive)
REMARK    1  A    between atoms: C_1  and  O_2
REMARK    2  A    between atoms: O_2  and  C_3
REMARK    3  A    between atoms: C_12  and  C_14
REMARK                            x       y       z     vdW  Elec       q    Type
REMARK                         _______ _______ _______ _____ _____    ______ ____
ROOT
ATOM      1  C   UNL     1      31.910  23.539  68.282  0.00  0.00    +0.000 A 
ATOM      2  C   UNL     1      33.076  23.914  67.648  0.00  0.00    +0.000 A 
ATOM      3  C   UNL     1      34.033  22.958  67.334  0.00  0.00    +0.000 A 
ATOM      4  C   UNL     1      33.837  21.627  67.645  0.00  0.00    +0.000 A 
ATOM      5  C   UNL     1      32.655  21.276  68.276  0.00  0.00    +0.000 A 
ATOM      6  C   UNL     1      31.683  22.198  68.611  0.00  0.00    +0.000 A 
ATOM      7  C   UNL     1      30.433  21.773  69.292  0.00  0.00    +0.000 A 
ATOM      8  O   UNL     1      29.589  22.626  69.574  0.00  0.00    +0.000 OA
ATOM      9  C   UNL     1      30.308  20.351  69.542  0.00  0.00    +0.000 A 
ATOM     10  C   UNL     1      31.342  19.492  69.112  0.00  0.00    +0.000 A 
ATOM     11  O   UNL     1      32.486  19.930  68.547  0.00  0.00    +0.000 OA
ENDROOT
BRANCH  10  12
ATOM     12  C   UNL     1      31.156  17.994  69.294  0.00  0.00    +0.000 A 
ATOM     13  C   UNL     1      31.292  17.154  68.200  0.00  0.00    +0.000 A 
ATOM     14  C   UNL     1      30.814  15.841  68.423  0.00  0.00    +0.000 A 
ATOM     15  C   UNL     1      30.597  15.316  69.615  0.00  0.00    +0.000 A 
ATOM     16  C   UNL     1      30.542  16.190  70.664  0.00  0.00    +0.000 A 
ATOM     17  C   UNL     1      30.867  17.515  70.499  0.00  0.00    +0.000 A 
ENDBRANCH  10  12
BRANCH   1  19
ATOM     18  C   UNL     1      30.830  25.685  67.754  0.00  0.00    +0.000 C 
ATOM     19  O   UNL     1      30.887  24.494  68.524  0.00  0.00    +0.000 OA
ENDBRANCH   1  19
TORSDOF 2
ENDMDL
