MODEL 1
REMARK VINA RESULT:    -7.525      0.000      0.000
REMARK INTER + INTRA:         -10.238
REMARK INTER:                  -9.829
REMARK INTRA:                  -0.409
REMARK UNBOUND:                -0.734
REMARK  Name = 
REMARK  6 active torsions:
REMARK  status: ('A' for Active; 'I' for Inactive)
REMARK    1  A    between atoms: C_1  and  O_2
REMARK    2  A    between atoms: O_2  and  C_3
REMARK    3  A    between atoms: C_6  and  C_7
REMARK    4  A    between atoms: C_7  and  C_9
REMARK    5  A    between atoms: C_10  and  C_11
REMARK    6  A    between atoms: C_17  and  O_18
REMARK                            x       y       z     vdW  Elec       q    Type
REMARK                         _______ _______ _______ _____ _____    ______ ____
ROOT
ATOM      1  C   UNL     1      31.248  16.846  69.004  0.00  0.00    +0.000 A 
ATOM      2  C   UNL     1      31.253  18.134  68.526  0.00  0.00    +0.000 A 
ATOM      3  C   UNL     1      31.554  19.186  69.370  0.00  0.00    +0.000 A 
ATOM      4  C   UNL     1      31.866  18.949  70.687  0.00  0.00    +0.000 A 
ATOM      5  C   UNL     1      31.893  17.660  71.171  0.00  0.00    +0.000 A 
ATOM      6  C   UNL     1      31.595  16.572  70.344  0.00  0.00    +0.000 A 
ENDROOT
BRANCH   1   8
ATOM      7  C   UNL     1      31.281  14.516  68.423  0.00  0.00    +0.000 C 
ATOM      8  O   UNL     1      30.920  15.860  68.139  0.00  0.00    +0.000 OA
ENDBRANCH   1   8
BRANCH   4   9
ATOM      9  C   UNL     1      32.184  20.113  71.611  0.00  0.00    +0.000 C 
ATOM     10  O   UNL     1      32.593  19.893  72.794  0.00  0.00    +0.000 OA
BRANCH   9  11
ATOM     11  C   UNL     1      32.013  21.542  71.120  0.00  0.00    +0.000 C 
ATOM     12  C   UNL     1      31.139  22.377  71.744  0.00  0.00    +0.000 C 
BRANCH  12  13
ATOM     13  C   UNL     1      30.969  23.805  71.252  0.00  0.00    +0.000 A 
ATOM     14  C   UNL     1      30.343  23.987  70.030  0.00  0.00    +0.000 A 
ATOM     15  C   UNL     1      30.466  25.299  69.513  0.00  0.00    +0.000 A 
ATOM     16  C   UNL     1      30.805  26.357  70.226  0.00  0.00    +0.000 A 
ATOM     17  C   UNL     1      31.356  26.111  71.454  0.00  0.00    +0.000 A 
ATOM     18  C   UNL     1      31.392  24.839  71.971  0.00  0.00    +0.000 A 
ENDBRANCH  12  13
ENDBRANCH   9  11
ENDBRANCH   4   9
BRANCH   5  19
ATOM     19  O   UNL     1      32.230  17.431  72.532  0.00  0.00    +0.000 OA
ATOM     20  H   UNL     1      33.131  17.695  72.875  0.00  0.00    +0.000 HD
ENDBRANCH   5  19
TORSDOF 5
ENDMDL
MODEL 2
REMARK VINA RESULT:    -7.337      3.501      7.710
REMARK INTER + INTRA:         -10.001
REMARK INTER:                  -9.182
REMARK INTRA:                  -0.819
REMARK UNBOUND:                -0.734
REMARK  Name = 
REMARK  6 active torsions:
REMARK  status: ('A' for Active; 'I' for Inactive)
REMARK    1  A    between atoms: C_1  and  O_2
REMARK    2  A    between atoms: O_2  and  C_3
REMARK    3  A    between atoms: C_6  and  C_7
REMARK    4  A    between atoms: C_7  and  C_9
REMARK    5  A    between atoms: C_10  and  C_11
REMARK    6  A    between atoms: C_17  and  O_18
REMARK                            x       y       z     vdW  Elec       q    Type
REMARK                         _______ _______ _______ _____ _____    ______ ____
ROOT
ATOM      1  C   UNL     1      31.620  25.460  68.520  0.00  0.00    +0.000 A 
ATOM      2  C   UNL     1      30.420  24.793  68.579  0.00  0.00    +0.000 A 
ATOM      3  C   UNL     1      30.288  23.550  67.990  0.00  0.00    +0.000 A 
ATOM      4  C   UNL     1      31.359  22.967  67.357  0.00  0.00    +0.000 A 
ATOM      5  C   UNL     1      32.575  23.612  67.318  0.00  0.00    +0.000 A 
ATOM      6  C   UNL     1      32.744  24.871  67.903  0.00  0.00    +0.000 A 
ENDROOT
BRANCH   1   8
ATOM      7  C   UNL     1      30.840  27.730  68.625  0.00  0.00    +0.000 C 
ATOM      8  O   UNL     1      31.682  26.684  69.090  0.00  0.00    +0.000 OA
ENDBRANCH   1   8
BRANCH   4   9
ATOM      9  C   UNL     1      31.202  21.604  66.702  0.00  0.00    +0.000 C 
ATOM     10  O   UNL     1      31.342  21.483  65.445  0.00  0.00    +0.000 OA
BRANCH   9  11
ATOM     11  C   UNL     1      30.878  20.386  67.551  0.00  0.00    +0.000 C 
ATOM     12  C   UNL     1      31.512  20.197  68.740  0.00  0.00    +0.000 C 
BRANCH  12  13
ATOM     13  C   UNL     1      31.188  18.979  69.589  0.00  0.00    +0.000 A 
ATOM     14  C   UNL     1      31.955  18.770  70.723  0.00  0.00    +0.000 A 
ATOM     15  C   UNL     1      31.784  17.490  71.303  0.00  0.00    +0.000 A 
ATOM     16  C   UNL     1      30.766  16.686  71.059  0.00  0.00    +0.000 A 
ATOM     17  C   UNL     1      30.005  16.985  69.962  0.00  0.00    +0.000 A 
ATOM     18  C   UNL     1      30.199  18.153  69.265  0.00  0.00    +0.000 A 
ENDBRANCH  12  13
ENDBRANCH   9  11
ENDBRANCH   4   9
BRANCH   5  19
ATOM     19  O   UNL     1      33.676  22.990  66.670  0.00  0.00    +0.000 OA
ATOM     20  H   UNL     1      34.439  23.544  66.339  0.00  0.00    +0.000 HD
ENDBRANCH   5  19
TORSDOF 5
ENDMDL
MODEL 3
REMARK VINA RESULT:    -7.295      3.730      8.160
REMARK INTER + INTRA:          -9.948
REMARK INTER:                  -9.164
REMARK INTRA:                  -0.784
REMARK UNBOUND:                -0.734
REMARK  Name = 
REMARK  6 active torsions:
REMARK  status: ('A' for Active; 'I' for Inactive)
REMARK    1  A    between atoms: C_1  and  O_2
REMARK    2  A    between atoms: O_2  and  C_3
REMARK    3  A    between atoms: C_6  and  C_7
REMARK    4  A    between atoms: C_7  and  C_9
REMARK    5  A    between atoms: C_10  and  C_11
REMARK    6  A    between atoms: C_17  and  O_18
REMARK                            x       y       z     vdW  Elec       q    Type
REMARK                         _______ _______ _______ _____ _____    ______ ____
ROOT
ATOM      1  C   UNL     1      33.258  27.933  69.859  0.00  0.00    +0.000 A 
ATOM      2  C   UNL     1      33.923  26.731  69.918  0.00  0.00    +0.000 A 
ATOM      3  C   UNL     1      33.454  25.720  70.735  0.00  0.00    +0.000 A 
ATOM      4  C   UNL     1      32.312  25.903  71.478  0.00  0.00    +0.000 A 
ATOM      5  C   UNL     1      31.622  27.093  71.403  0.00  0.00    +0.000 A 
ATOM      6  C   UNL     1      32.068  28.137  70.587  0.00  0.00    +0.000 A 
ENDROOT
BRANCH   1   8
ATOM      7  C   UNL     1      33.007  29.430  67.997  0.00  0.00    +0.000 C 
ATOM      8  O   UNL     1      33.779  28.895  69.063  0.00  0.00    +0.000 OA
ENDBRANCH   1   8
BRANCH   4   9
ATOM      9  C   UNL     1      31.811  24.790  72.383  0.00  0.00    +0.000 C 
ATOM     10  O   UNL     1      31.480  25.045  73.583  0.00  0.00    +0.000 OA
BRANCH   9  11
ATOM     11  C   UNL     1      31.703  23.370  71.851  0.00  0.00    +0.000 C 
ATOM     12  C   UNL     1      30.800  23.074  70.877  0.00  0.00    +0.000 C 
BRANCH  12  13
ATOM     13  C   UNL     1      30.693  21.655  70.345  0.00  0.00    +0.000 A 
ATOM     14  C   UNL     1      31.702  20.769  70.687  0.00  0.00    +0.000 A 
ATOM     15  C   UNL     1      31.685  19.565  69.942  0.00  0.00    +0.000 A 
ATOM     16  C   UNL     1      30.647  19.125  69.254  0.00  0.00    +0.000 A 
ATOM     17  C   UNL     1      29.652  20.030  69.007  0.00  0.00    +0.000 A 
ATOM     18  C   UNL     1      29.667  21.273  69.593  0.00  0.00    +0.000 A 
ENDBRANCH  12  13
ENDBRANCH   9  11
ENDBRANCH   4   9
BRANCH   5  19
ATOM     19  O   UNL     1      30.437  27.262  72.169  0.00  0.00    +0.000 OA
ATOM     20  H   UNL     1      29.918  28.114  72.105  0.00  0.00    +0.000 HD
ENDBRANCH   5  19
TORSDOF 5
ENDMDL
MODEL 4
REMARK VINA RESULT:    -7.268      4.574      6.852
REMARK INTER + INTRA:          -9.914
REMARK INTER:                  -9.108
REMARK INTRA:                  -0.806
REMARK UNBOUND:                -0.734
REMARK  Name = 
REMARK  6 active torsions:
REMARK  status: ('A' for Active; 'I' for Inactive)
REMARK    1  A    between atoms: C_1  and  O_2
REMARK    2  A    between atoms: O_2  and  C_3
REMARK    3  A    between atoms: C_6  and  C_7
REMARK    4  A    between atoms: C_7  and  C_9
REMARK    5  A    between atoms: C_10  and  C_11
REMARK    6  A    between atoms: C_17  and  O_18
REMARK                            x       y       z     vdW  Elec       q    Type
REMARK                         _______ _______ _______ _____ _____    ______ ____
ROOT
ATOM      1  C   UNL     1      30.373  23.514  68.806  0.00  0.00    +0.000 A 
ATOM      2  C   UNL     1      30.627  24.702  68.162  0.00  0.00    +0.000 A 
ATOM      3  C   UNL     1      30.907  25.840  68.893  0.00  0.00    +0.000 A 
ATOM      4  C   UNL     1      30.950  25.789  70.266  0.00  0.00    +0.000 A 
ATOM      5  C   UNL     1      30.727  24.598  70.921  0.00  0.00    +0.000 A 
ATOM      6  C   UNL     1      30.441  23.426  70.212  0.00  0.00    +0.000 A 
ENDROOT
BRANCH   1   8
ATOM      7  C   UNL     1      30.582  22.353  66.714  0.00  0.00    +0.000 C 
ATOM      8  O   UNL     1      30.079  22.440  68.040  0.00  0.00    +0.000 OA
ENDBRANCH   1   8
BRANCH   4   9
ATOM      9  C   UNL     1      31.248  27.049  71.062  0.00  0.00    +0.000 C 
ATOM     10  O   UNL     1      30.475  27.400  72.008  0.00  0.00    +0.000 OA
BRANCH   9  11
ATOM     11  C   UNL     1      32.470  27.888  70.727  0.00  0.00    +0.000 C 
ATOM     12  C   UNL     1      33.713  27.339  70.800  0.00  0.00    +0.000 C 
BRANCH  12  13
ATOM     13  C   UNL     1      34.935  28.179  70.465  0.00  0.00    +0.000 A 
ATOM     14  C   UNL     1      36.153  27.525  70.381  0.00  0.00    +0.000 A 
ATOM     15  C   UNL     1      37.269  28.395  70.342  0.00  0.00    +0.000 A 
ATOM     16  C   UNL     1      37.207  29.681  70.047  0.00  0.00    +0.000 A 
ATOM     17  C   UNL     1      35.965  30.253  70.081  0.00  0.00    +0.000 A 
ATOM     18  C   UNL     1      34.837  29.486  70.247  0.00  0.00    +0.000 A 
ENDBRANCH  12  13
ENDBRANCH   9  11
ENDBRANCH   4   9
BRANCH   5  19
ATOM     19  O   UNL     1      30.788  24.559  72.340  0.00  0.00    +0.000 OA
ATOM     20  H   UNL     1      31.241  25.295  72.841  0.00  0.00    +0.000 HD
ENDBRANCH   5  19
TORSDOF 5
ENDMDL
MODEL 5
REMARK VINA RESULT:    -7.238      2.445      3.626
REMARK INTER + INTRA:          -9.876
REMARK INTER:                  -9.179
REMARK INTRA:                  -0.697
REMARK UNBOUND:                -0.734
REMARK  Name = 
REMARK  6 active torsions:
REMARK  status: ('A' for Active; 'I' for Inactive)
REMARK    1  A    between atoms: C_1  and  O_2
REMARK    2  A    between atoms: O_2  and  C_3
REMARK    3  A    between atoms: C_6  and  C_7
REMARK    4  A    between atoms: C_7  and  C_9
REMARK    5  A    between atoms: C_10  and  C_11
REMARK    6  A    between atoms: C_17  and  O_18
REMARK                            x       y       z     vdW  Elec       q    Type
REMARK                         _______ _______ _______ _____ _____    ______ ____
ROOT
ATOM      1  C   UNL     1      31.639  18.959  69.611  0.00  0.00    +0.000 A 
ATOM      2  C   UNL     1      30.833  19.593  68.696  0.00  0.00    +0.000 A 
ATOM      3  C   UNL     1      30.412  20.889  68.925  0.00  0.00    +0.000 A 
ATOM      4  C   UNL     1      30.809  21.556  70.059  0.00  0.00    +0.000 A 
ATOM      5  C   UNL     1      31.641  20.941  70.968  0.00  0.00    +0.000 A 
ATOM      6  C   UNL     1      32.087  19.631  70.768  0.00  0.00    +0.000 A 
ENDROOT
BRANCH   1   8
ATOM      7  C   UNL     1      31.232  16.901  68.441  0.00  0.00    +0.000 C 
ATOM      8  O   UNL     1      31.998  17.682  69.347  0.00  0.00    +0.000 OA
ENDBRANCH   1   8
BRANCH   4   9
ATOM      9  C   UNL     1      30.330  22.978  70.308  0.00  0.00    +0.000 C 
ATOM     10  O   UNL     1      29.405  23.199  71.150  0.00  0.00    +0.000 OA
BRANCH   9  11
ATOM     11  C   UNL     1      30.960  24.135  69.550  0.00  0.00    +0.000 C 
ATOM     12  C   UNL     1      30.339  24.648  68.453  0.00  0.00    +0.000 C 
BRANCH  12  13
ATOM     13  C   UNL     1      30.969  25.805  67.696  0.00  0.00    +0.000 A 
ATOM     14  C   UNL     1      32.270  25.641  67.249  0.00  0.00    +0.000 A 
ATOM     15  C   UNL     1      32.879  26.839  66.804  0.00  0.00    +0.000 A 
ATOM     16  C   UNL     1      32.223  27.939  66.484  0.00  0.00    +0.000 A 
ATOM     17  C   UNL     1      30.920  28.012  66.896  0.00  0.00    +0.000 A 
ATOM     18  C   UNL     1      30.295  26.925  67.459  0.00  0.00    +0.000 A 
ENDBRANCH  12  13
ENDBRANCH   9  11
ENDBRANCH   4   9
BRANCH   5  19
ATOM     19  O   UNL     1      32.052  21.649  72.129  0.00  0.00    +0.000 OA
ATOM     20  H   UNL     1      31.482  21.637  72.950  0.00  0.00    +0.000 HD
ENDBRANCH   5  19
TORSDOF 5
ENDMDL
MODEL 6
REMARK VINA RESULT:    -7.234      3.860      4.973
REMARK INTER + INTRA:          -9.871
REMARK INTER:                  -9.197
REMARK INTRA:                  -0.674
REMARK UNBOUND:                -0.734
REMARK  Name = 
REMARK  6 active torsions:
REMARK  status: ('A' for Active; 'I' for Inactive)
REMARK    1  A    between atoms: C_1  and  O_2
REMARK    2  A    between atoms: O_2  and  C_3
REMARK    3  A    between atoms: C_6  and  C_7
REMARK    4  A    between atoms: C_7  and  C_9
REMARK    5  A    between atoms: C_10  and  C_11
REMARK    6  A    between atoms: C_17  and  O_18
REMARK                            x       y       z     vdW  Elec       q    Type
REMARK                         _______ _______ _______ _____ _____    ______ ____
ROOT
ATOM      1  C   UNL     1      29.136  20.914  68.133  0.00  0.00    +0.000 A 
ATOM      2  C   UNL     1      29.224  22.144  67.527  0.00  0.00    +0.000 A 
ATOM      3  C   UNL     1      30.461  22.683  67.228  0.00  0.00    +0.000 A 
ATOM      4  C   UNL     1      31.608  21.985  67.519  0.00  0.00    +0.000 A 
ATOM      5  C   UNL     1      31.532  20.737  68.098  0.00  0.00    +0.000 A 
ATOM      6  C   UNL     1      30.296  20.162  68.414  0.00  0.00    +0.000 A 
ENDROOT
BRANCH   1   8
ATOM      7  C   UNL     1      27.100  21.118  69.391  0.00  0.00    +0.000 C 
ATOM      8  O   UNL     1      27.900  20.449  68.426  0.00  0.00    +0.000 OA
ENDBRANCH   1   8
BRANCH   4   9
ATOM      9  C   UNL     1      32.965  22.590  67.197  0.00  0.00    +0.000 C 
ATOM     10  O   UNL     1      33.669  22.110  66.254  0.00  0.00    +0.000 OA
BRANCH   9  11
ATOM     11  C   UNL     1      33.480  23.771  68.004  0.00  0.00    +0.000 C 
ATOM     12  C   UNL     1      33.019  25.025  67.744  0.00  0.00    +0.000 C 
BRANCH  12  13
ATOM     13  C   UNL     1      33.534  26.206  68.550  0.00  0.00    +0.000 A 
ATOM     14  C   UNL     1      34.559  25.964  69.450  0.00  0.00    +0.000 A 
ATOM     15  C   UNL     1      34.795  27.029  70.351  0.00  0.00    +0.000 A 
ATOM     16  C   UNL     1      34.375  28.268  70.172  0.00  0.00    +0.000 A 
ATOM     17  C   UNL     1      33.409  28.452  69.221  0.00  0.00    +0.000 A 
ATOM     18  C   UNL     1      33.031  27.424  68.391  0.00  0.00    +0.000 A 
ENDBRANCH  12  13
ENDBRANCH   9  11
ENDBRANCH   4   9
BRANCH   5  19
ATOM     19  O   UNL     1      32.727  20.023  68.381  0.00  0.00    +0.000 OA
ATOM     20  H   UNL     1      32.882  19.651  69.295  0.00  0.00    +0.000 HD
ENDBRANCH   5  19
TORSDOF 5
ENDMDL
MODEL 7
REMARK VINA RESULT:    -7.218      5.359      8.518
REMARK INTER + INTRA:          -9.850
REMARK INTER:                  -9.038
REMARK INTRA:                  -0.812
REMARK UNBOUND:                -0.734
REMARK  Name = 
REMARK  6 active torsions:
REMARK  status: ('A' for Active; 'I' for Inactive)
REMARK    1  A    between atoms: C_1  and  O_2
REMARK    2  A    between atoms: O_2  and  C_3
REMARK    3  A    between atoms: C_6  and  C_7
REMARK    4  A    between atoms: C_7  and  C_9
REMARK    5  A    between atoms: C_10  and  C_11
REMARK    6  A    between atoms: C_17  and  O_18
REMARK                            x       y       z     vdW  Elec       q    Type
REMARK                         _______ _______ _______ _____ _____    ______ ____
ROOT
ATOM      1  C   UNL     1      34.780  27.926  70.780  0.00  0.00    +0.000 A 
ATOM      2  C   UNL     1      33.589  28.420  70.304  0.00  0.00    +0.000 A 
ATOM      3  C   UNL     1      32.910  27.747  69.306  0.00  0.00    +0.000 A 
ATOM      4  C   UNL     1      33.412  26.574  68.796  0.00  0.00    +0.000 A 
ATOM      5  C   UNL     1      34.589  26.054  69.287  0.00  0.00    +0.000 A 
ATOM      6  C   UNL     1      35.302  26.708  70.297  0.00  0.00    +0.000 A 
ENDROOT
BRANCH   1   8
ATOM      7  C   UNL     1      36.599  29.356  71.425  0.00  0.00    +0.000 C 
ATOM      8  O   UNL     1      35.412  28.640  71.739  0.00  0.00    +0.000 OA
ENDBRANCH   1   8
BRANCH   4   9
ATOM      9  C   UNL     1      32.664  25.847  67.690  0.00  0.00    +0.000 C 
ATOM     10  O   UNL     1      33.169  25.768  66.526  0.00  0.00    +0.000 OA
BRANCH   9  11
ATOM     11  C   UNL     1      31.313  25.214  67.976  0.00  0.00    +0.000 C 
ATOM     12  C   UNL     1      31.176  24.337  69.007  0.00  0.00    +0.000 C 
BRANCH  12  13
ATOM     13  C   UNL     1      29.825  23.704  69.293  0.00  0.00    +0.000 A 
ATOM     14  C   UNL     1      29.633  23.150  70.548  0.00  0.00    +0.000 A 
ATOM     15  C   UNL     1      28.472  22.347  70.649  0.00  0.00    +0.000 A 
ATOM     16  C   UNL     1      27.462  22.379  69.800  0.00  0.00    +0.000 A 
ATOM     17  C   UNL     1      27.694  23.000  68.603  0.00  0.00    +0.000 A 
ATOM     18  C   UNL     1      28.859  23.694  68.381  0.00  0.00    +0.000 A 
ENDBRANCH  12  13
ENDBRANCH   9  11
ENDBRANCH   4   9
BRANCH   5  19
ATOM     19  O   UNL     1      35.088  24.833  68.758  0.00  0.00    +0.000 OA
ATOM     20  H   UNL     1      34.490  24.035  68.694  0.00  0.00    +0.000 HD
ENDBRANCH   5  19
TORSDOF 5
ENDMDL
MODEL 8
REMARK VINA RESULT:    -7.173      3.819      4.721
REMARK INTER + INTRA:          -9.795
REMARK INTER:                  -9.095
REMARK INTRA:                  -0.700
REMARK UNBOUND:                -0.734
REMARK  Name = 
REMARK  6 active torsions:
REMARK  status: ('A' for Active; 'I' for Inactive)
REMARK    1  A    between atoms: C_1  and  O_2
REMARK    2  A    between atoms: O_2  and  C_3
REMARK    3  A    between atoms: C_6  and  C_7
REMARK    4  A    between atoms: C_7  and  C_9
REMARK    5  A    between atoms: C_10  and  C_11
REMARK    6  A    between atoms: C_17  and  O_18
REMARK                            x       y       z     vdW  Elec       q    Type
REMARK                         _______ _______ _______ _____ _____    ______ ____
ROOT
ATOM      1  C   UNL     1      30.781  19.934  68.785  0.00  0.00    +0.000 A 
ATOM      2  C   UNL     1      31.783  20.410  69.597  0.00  0.00    +0.000 A 
ATOM      3  C   UNL     1      32.694  21.326  69.107  0.00  0.00    +0.000 A 
ATOM      4  C   UNL     1      32.594  21.780  67.814  0.00  0.00    +0.000 A 
ATOM      5  C   UNL     1      31.576  21.333  67.001  0.00  0.00    +0.000 A 
ATOM      6  C   UNL     1      30.636  20.406  67.464  0.00  0.00    +0.000 A 
ENDROOT
BRANCH   1   8
ATOM      7  C   UNL     1      30.391  17.701  69.578  0.00  0.00    +0.000 C 
ATOM      8  O   UNL     1      29.935  19.019  69.310  0.00  0.00    +0.000 OA
ENDBRANCH   1   8
BRANCH   4   9
ATOM      9  C   UNL     1      33.608  22.779  67.281  0.00  0.00    +0.000 C 
ATOM     10  O   UNL     1      34.484  22.408  66.439  0.00  0.00    +0.000 OA
BRANCH   9  11
ATOM     11  C   UNL     1      33.573  24.223  67.756  0.00  0.00    +0.000 C 
ATOM     12  C   UNL     1      34.350  24.615  68.802  0.00  0.00    +0.000 C 
BRANCH  12  13
ATOM     13  C   UNL     1      34.315  26.058  69.275  0.00  0.00    +0.000 A 
ATOM     14  C   UNL     1      33.305  26.866  68.779  0.00  0.00    +0.000 A 
ATOM     15  C   UNL     1      33.494  28.245  69.040  0.00  0.00    +0.000 A 
ATOM     16  C   UNL     1      34.316  28.729  69.952  0.00  0.00    +0.000 A 
ATOM     17  C   UNL     1      35.248  27.862  70.453  0.00  0.00    +0.000 A 
ATOM     18  C   UNL     1      35.209  26.525  70.140  0.00  0.00    +0.000 A 
ENDBRANCH  12  13
ENDBRANCH   9  11
ENDBRANCH   4   9
BRANCH   5  19
ATOM     19  O   UNL     1      31.479  21.821  65.671  0.00  0.00    +0.000 OA
ATOM     20  H   UNL     1      31.210  21.206  64.931  0.00  0.00    +0.000 HD
ENDBRANCH   5  19
TORSDOF 5
ENDMDL
MODEL 9
REMARK VINA RESULT:    -7.096      3.636      8.040
REMARK INTER + INTRA:          -9.697
REMARK INTER:                  -8.963
REMARK INTRA:                  -0.734
REMARK UNBOUND:                -0.734
REMARK  Name = 
REMARK  6 active torsions:
REMARK  status: ('A' for Active; 'I' for Inactive)
REMARK    1  A    between atoms: C_1  and  O_2
REMARK    2  A    between atoms: O_2  and  C_3
REMARK    3  A    between atoms: C_6  and  C_7
REMARK    4  A    between atoms: C_7  and  C_9
REMARK    5  A    between atoms: C_10  and  C_11
REMARK    6  A    between atoms: C_17  and  O_18
REMARK                            x       y       z     vdW  Elec       q    Type
REMARK                         _______ _______ _______ _____ _____    ______ ____
ROOT
ATOM      1  C   UNL     1      32.970  26.231  69.527  0.00  0.00    +0.000 A 
ATOM      2  C   UNL     1      31.927  25.367  69.756  0.00  0.00    +0.000 A 
ATOM      3  C   UNL     1      31.909  24.126  69.148  0.00  0.00    +0.000 A 
ATOM      4  C   UNL     1      32.941  23.742  68.326  0.00  0.00    +0.000 A 
ATOM      5  C   UNL     1      34.007  24.588  68.113  0.00  0.00    +0.000 A 
ATOM      6  C   UNL     1      34.058  25.851  68.712  0.00  0.00    +0.000 A 
ENDROOT
BRANCH   1   8
ATOM      7  C   UNL     1      33.910  28.420  69.837  0.00  0.00    +0.000 C 
ATOM      8  O   UNL     1      32.921  27.442  70.127  0.00  0.00    +0.000 OA
ENDBRANCH   1   8
BRANCH   4   9
ATOM      9  C   UNL     1      32.907  22.380  67.653  0.00  0.00    +0.000 C 
ATOM     10  O   UNL     1      32.982  22.294  66.387  0.00  0.00    +0.000 OA
BRANCH   9  11
ATOM     11  C   UNL     1      32.785  21.120  68.494  0.00  0.00    +0.000 C 
ATOM     12  C   UNL     1      31.680  20.333  68.386  0.00  0.00    +0.000 C 
BRANCH  12  13
ATOM     13  C   UNL     1      31.559  19.073  69.227  0.00  0.00    +0.000 A 
ATOM     14  C   UNL     1      31.820  19.186  70.583  0.00  0.00    +0.000 A 
ATOM     15  C   UNL     1      31.959  17.942  71.245  0.00  0.00    +0.000 A 
ATOM     16  C   UNL     1      31.539  16.786  70.764  0.00  0.00    +0.000 A 
ATOM     17  C   UNL     1      31.232  16.757  69.431  0.00  0.00    +0.000 A 
ATOM     18  C   UNL     1      31.204  17.913  68.687  0.00  0.00    +0.000 A 
ENDBRANCH  12  13
ENDBRANCH   9  11
ENDBRANCH   4   9
BRANCH   5  19
ATOM     19  O   UNL     1      35.072  24.172  67.270  0.00  0.00    +0.000 OA
ATOM     20  H   UNL     1      35.237  24.642  66.404  0.00  0.00    +0.000 HD
ENDBRANCH   5  19
TORSDOF 5
ENDMDL
