MODEL 1
REMARK VINA RESULT:    -7.271      0.000      0.000
REMARK INTER + INTRA:          -9.497
REMARK INTER:                  -9.217
REMARK INTRA:                  -0.280
REMARK UNBOUND:                -0.526
REMARK  Name = 
REMARK  6 active torsions:
REMARK  status: ('A' for Active; 'I' for Inactive)
REMARK    1  A    between atoms: C_1  and  O_2
REMARK    2  A    between atoms: O_2  and  C_3
REMARK    3  A    between atoms: C_6  and  C_7
REMARK    4  A    between atoms: C_8  and  C_9
REMARK    5  A    between atoms: C_11  and  O_12
REMARK    6  A    between atoms: C_14  and  O_15
REMARK                            x       y       z     vdW  Elec       q    Type
REMARK                         _______ _______ _______ _____ _____    ______ ____
ROOT
ATOM      1  C   UNL     1      32.908  25.102  69.265  0.00  0.00    +0.000 C 
ATOM      2  C   UNL     1      33.909  25.137  70.185  0.00  0.00    +0.000 C 
ENDROOT
BRANCH   1   6
ATOM      3  C   UNL     1      31.793  28.475  66.894  0.00  0.00    +0.000 A 
ATOM      4  C   UNL     1      31.077  28.209  68.048  0.00  0.00    +0.000 A 
ATOM      5  C   UNL     1      31.659  27.213  68.868  0.00  0.00    +0.000 A 
ATOM      6  C   UNL     1      32.571  26.348  68.461  0.00  0.00    +0.000 A 
ATOM      7  C   UNL     1      33.195  26.633  67.278  0.00  0.00    +0.000 A 
ATOM      8  C   UNL     1      32.767  27.670  66.486  0.00  0.00    +0.000 A 
BRANCH   3  10
ATOM      9  C   UNL     1      30.155  30.131  66.102  0.00  0.00    +0.000 C 
ATOM     10  O   UNL     1      31.482  29.625  66.120  0.00  0.00    +0.000 OA
ENDBRANCH   3  10
ENDBRANCH   1   6
BRANCH   2  11
ATOM     11  C   UNL     1      34.692  26.420  70.410  0.00  0.00    +0.000 A 
ATOM     12  C   UNL     1      35.978  26.542  69.913  0.00  0.00    +0.000 A 
ATOM     13  C   UNL     1      36.688  27.655  70.424  0.00  0.00    +0.000 A 
ATOM     14  C   UNL     1      36.125  28.692  71.020  0.00  0.00    +0.000 A 
ATOM     15  C   UNL     1      34.830  28.531  71.427  0.00  0.00    +0.000 A 
ATOM     16  C   UNL     1      34.113  27.412  71.076  0.00  0.00    +0.000 A 
BRANCH  13  17
ATOM     17  O   UNL     1      38.101  27.657  70.289  0.00  0.00    +0.000 OA
ATOM     18  H   UNL     1      38.584  28.513  70.106  0.00  0.00    +0.000 HD
ENDBRANCH  13  17
BRANCH  15  19
ATOM     19  O   UNL     1      34.217  29.535  72.222  0.00  0.00    +0.000 OA
ATOM     20  H   UNL     1      33.522  29.284  72.896  0.00  0.00    +0.000 HD
ENDBRANCH  15  19
ENDBRANCH   2  11
TORSDOF 5
ENDMDL
MODEL 2
REMARK VINA RESULT:    -7.225      7.335      9.012
REMARK INTER + INTRA:          -9.441
REMARK INTER:                  -9.441
REMARK INTRA:                   0.001
REMARK UNBOUND:                -0.526
REMARK  Name = 
REMARK  6 active torsions:
REMARK  status: ('A' for Active; 'I' for Inactive)
REMARK    1  A    between atoms: C_1  and  O_2
REMARK    2  A    between atoms: O_2  and  C_3
REMARK    3  A    between atoms: C_6  and  C_7
REMARK    4  A    between atoms: C_8  and  C_9
REMARK    5  A    between atoms: C_11  and  O_12
REMARK    6  A    between atoms: C_14  and  O_15
REMARK                            x       y       z     vdW  Elec       q    Type
REMARK                         _______ _______ _______ _____ _____    ______ ____
ROOT
ATOM      1  C   UNL     1      31.310  22.507  69.851  0.00  0.00    +0.000 C 
ATOM      2  C   UNL     1      32.300  21.599  70.065  0.00  0.00    +0.000 C 
ENDROOT
BRANCH   1   6
ATOM      3  C   UNL     1      27.248  21.402  69.129  0.00  0.00    +0.000 A 
ATOM      4  C   UNL     1      28.142  21.374  68.073  0.00  0.00    +0.000 A 
ATOM      5  C   UNL     1      29.493  21.541  68.459  0.00  0.00    +0.000 A 
ATOM      6  C   UNL     1      29.883  22.035  69.621  0.00  0.00    +0.000 A 
ATOM      7  C   UNL     1      28.935  22.100  70.603  0.00  0.00    +0.000 A 
ATOM      8  C   UNL     1      27.618  21.824  70.333  0.00  0.00    +0.000 A 
BRANCH   3  10
ATOM      9  C   UNL     1      25.132  21.551  67.884  0.00  0.00    +0.000 C 
ATOM     10  O   UNL     1      25.906  20.982  68.930  0.00  0.00    +0.000 OA
ENDBRANCH   3  10
ENDBRANCH   1   6
BRANCH   2  11
ATOM     11  C   UNL     1      31.981  20.113  70.074  0.00  0.00    +0.000 A 
ATOM     12  C   UNL     1      31.913  19.427  71.274  0.00  0.00    +0.000 A 
ATOM     13  C   UNL     1      31.889  18.019  71.130  0.00  0.00    +0.000 A 
ATOM     14  C   UNL     1      31.593  17.387  70.008  0.00  0.00    +0.000 A 
ATOM     15  C   UNL     1      31.612  18.135  68.864  0.00  0.00    +0.000 A 
ATOM     16  C   UNL     1      31.762  19.501  68.916  0.00  0.00    +0.000 A 
BRANCH  13  17
ATOM     17  O   UNL     1      32.204  17.232  72.269  0.00  0.00    +0.000 OA
ATOM     18  H   UNL     1      33.078  17.359  72.738  0.00  0.00    +0.000 HD
ENDBRANCH  13  17
BRANCH  15  19
ATOM     19  O   UNL     1      31.474  17.494  67.605  0.00  0.00    +0.000 OA
ATOM     20  H   UNL     1      32.177  16.858  67.288  0.00  0.00    +0.000 HD
ENDBRANCH  15  19
ENDBRANCH   2  11
TORSDOF 5
ENDMDL
MODEL 3
REMARK VINA RESULT:    -6.911      6.280      7.795
REMARK INTER + INTRA:          -9.053
REMARK INTER:                  -8.557
REMARK INTRA:                  -0.496
REMARK UNBOUND:                -0.526
REMARK  Name = 
REMARK  6 active torsions:
REMARK  status: ('A' for Active; 'I' for Inactive)
REMARK    1  A    between atoms: C_1  and  O_2
REMARK    2  A    between atoms: O_2  and  C_3
REMARK    3  A    between atoms: C_6  and  C_7
REMARK    4  A    between atoms: C_8  and  C_9
REMARK    5  A    between atoms: C_11  and  O_12
REMARK    6  A    between atoms: C_14  and  O_15
REMARK                            x       y       z     vdW  Elec       q    Type
REMARK                         _______ _______ _______ _____ _____    ______ ____
ROOT
ATOM      1  C   UNL     1      31.080  23.975  68.717  0.00  0.00    +0.000 C 
ATOM      2  C   UNL     1      32.203  23.328  69.131  0.00  0.00    +0.000 C 
ENDROOT
BRANCH   1   6
ATOM      3  C   UNL     1      27.385  21.870  69.112  0.00  0.00    +0.000 A 
ATOM      4  C   UNL     1      27.999  22.355  70.254  0.00  0.00    +0.000 A 
ATOM      5  C   UNL     1      29.090  23.218  69.997  0.00  0.00    +0.000 A 
ATOM      6  C   UNL     1      29.724  23.298  68.840  0.00  0.00    +0.000 A 
ATOM      7  C   UNL     1      29.096  22.740  67.762  0.00  0.00    +0.000 A 
ATOM      8  C   UNL     1      27.954  21.993  67.918  0.00  0.00    +0.000 A 
BRANCH   3  10
ATOM      9  C   UNL     1      25.232  21.235  68.106  0.00  0.00    +0.000 C 
ATOM     10  O   UNL     1      26.126  21.220  69.209  0.00  0.00    +0.000 OA
ENDBRANCH   3  10
ENDBRANCH   1   6
BRANCH   2  11
ATOM     11  C   UNL     1      32.103  21.929  69.717  0.00  0.00    +0.000 A 
ATOM     12  C   UNL     1      32.150  21.749  71.088  0.00  0.00    +0.000 A 
ATOM     13  C   UNL     1      32.329  20.402  71.484  0.00  0.00    +0.000 A 
ATOM     14  C   UNL     1      32.115  19.358  70.703  0.00  0.00    +0.000 A 
ATOM     15  C   UNL     1      32.010  19.610  69.364  0.00  0.00    +0.000 A 
ATOM     16  C   UNL     1      31.960  20.900  68.891  0.00  0.00    +0.000 A 
BRANCH  13  17
ATOM     17  O   UNL     1      32.770  20.155  72.811  0.00  0.00    +0.000 OA
ATOM     18  H   UNL     1      32.121  20.204  73.570  0.00  0.00    +0.000 HD
ENDBRANCH  13  17
BRANCH  15  19
ATOM     19  O   UNL     1      31.950  18.526  68.449  0.00  0.00    +0.000 OA
ATOM     20  H   UNL     1      32.275  18.644  67.511  0.00  0.00    +0.000 HD
ENDBRANCH  15  19
ENDBRANCH   2  11
TORSDOF 5
ENDMDL
MODEL 4
REMARK VINA RESULT:    -6.868      2.819      5.265
REMARK INTER + INTRA:          -9.000
REMARK INTER:                  -8.478
REMARK INTRA:                  -0.521
REMARK UNBOUND:                -0.526
REMARK  Name = 
REMARK  6 active torsions:
REMARK  status: ('A' for Active; 'I' for Inactive)
REMARK    1  A    between atoms: C_1  and  O_2
REMARK    2  A    between atoms: O_2  and  C_3
REMARK    3  A    between atoms: C_6  and  C_7
REMARK    4  A    between atoms: C_8  and  C_9
REMARK    5  A    between atoms: C_11  and  O_12
REMARK    6  A    between atoms: C_14  and  O_15
REMARK                            x       y       z     vdW  Elec       q    Type
REMARK                         _______ _______ _______ _____ _____    ______ ____
ROOT
ATOM      1  C   UNL     1      32.476  25.755  67.491  0.00  0.00    +0.000 C 
ATOM      2  C   UNL     1      31.542  24.875  67.942  0.00  0.00    +0.000 C 
ENDROOT
BRANCH   1   6
ATOM      3  C   UNL     1      34.862  27.717  70.441  0.00  0.00    +0.000 A 
ATOM      4  C   UNL     1      35.072  26.369  70.205  0.00  0.00    +0.000 A 
ATOM      5  C   UNL     1      34.392  25.872  69.068  0.00  0.00    +0.000 A 
ATOM      6  C   UNL     1      33.377  26.479  68.479  0.00  0.00    +0.000 A 
ATOM      7  C   UNL     1      33.181  27.792  68.806  0.00  0.00    +0.000 A 
ATOM      8  C   UNL     1      33.898  28.383  69.816  0.00  0.00    +0.000 A 
BRANCH   3  10
ATOM      9  C   UNL     1      35.338  29.721  71.785  0.00  0.00    +0.000 C 
ATOM     10  O   UNL     1      35.683  28.406  71.372  0.00  0.00    +0.000 OA
ENDBRANCH   3  10
ENDBRANCH   1   6
BRANCH   2  11
ATOM     11  C   UNL     1      31.398  24.615  69.433  0.00  0.00    +0.000 A 
ATOM     12  C   UNL     1      30.845  25.582  70.254  0.00  0.00    +0.000 A 
ATOM     13  C   UNL     1      31.024  25.333  71.635  0.00  0.00    +0.000 A 
ATOM     14  C   UNL     1      31.345  24.158  72.148  0.00  0.00    +0.000 A 
ATOM     15  C   UNL     1      31.822  23.222  71.274  0.00  0.00    +0.000 A 
ATOM     16  C   UNL     1      31.800  23.446  69.918  0.00  0.00    +0.000 A 
BRANCH  13  17
ATOM     17  O   UNL     1      30.847  26.419  72.532  0.00  0.00    +0.000 OA
ATOM     18  H   UNL     1      30.019  26.976  72.485  0.00  0.00    +0.000 HD
ENDBRANCH  13  17
BRANCH  15  19
ATOM     19  O   UNL     1      32.346  22.000  71.773  0.00  0.00    +0.000 OA
ATOM     20  H   UNL     1      33.331  21.830  71.745  0.00  0.00    +0.000 HD
ENDBRANCH  15  19
ENDBRANCH   2  11
TORSDOF 5
ENDMDL
MODEL 5
REMARK VINA RESULT:    -6.830      5.002      7.781
REMARK INTER + INTRA:          -8.953
REMARK INTER:                  -8.362
REMARK INTRA:                  -0.591
REMARK UNBOUND:                -0.526
REMARK  Name = 
REMARK  6 active torsions:
REMARK  status: ('A' for Active; 'I' for Inactive)
REMARK    1  A    between atoms: C_1  and  O_2
REMARK    2  A    between atoms: O_2  and  C_3
REMARK    3  A    between atoms: C_6  and  C_7
REMARK    4  A    between atoms: C_8  and  C_9
REMARK    5  A    between atoms: C_11  and  O_12
REMARK    6  A    between atoms: C_14  and  O_15
REMARK                            x       y       z     vdW  Elec       q    Type
REMARK                         _______ _______ _______ _____ _____    ______ ____
ROOT
ATOM      1  C   UNL     1      32.253  20.194  71.246  0.00  0.00    +0.000 C 
ATOM      2  C   UNL     1      31.658  19.540  70.212  0.00  0.00    +0.000 C 
ENDROOT
BRANCH   1   6
ATOM      3  C   UNL     1      32.264  24.462  71.073  0.00  0.00    +0.000 A 
ATOM      4  C   UNL     1      31.154  23.821  71.597  0.00  0.00    +0.000 A 
ATOM      5  C   UNL     1      31.340  22.434  71.811  0.00  0.00    +0.000 A 
ATOM      6  C   UNL     1      32.300  21.714  71.258  0.00  0.00    +0.000 A 
ATOM      7  C   UNL     1      33.335  22.408  70.697  0.00  0.00    +0.000 A 
ATOM      8  C   UNL     1      33.284  23.774  70.572  0.00  0.00    +0.000 A 
BRANCH   3  10
ATOM      9  C   UNL     1      33.575  26.543  71.059  0.00  0.00    +0.000 C 
ATOM     10  O   UNL     1      32.319  25.881  71.060  0.00  0.00    +0.000 OA
ENDBRANCH   3  10
ENDBRANCH   1   6
BRANCH   2  11
ATOM     11  C   UNL     1      31.040  20.328  69.068  0.00  0.00    +0.000 A 
ATOM     12  C   UNL     1      29.705  20.687  69.118  0.00  0.00    +0.000 A 
ATOM     13  C   UNL     1      29.192  21.162  67.887  0.00  0.00    +0.000 A 
ATOM     14  C   UNL     1      29.936  21.581  66.879  0.00  0.00    +0.000 A 
ATOM     15  C   UNL     1      31.261  21.252  66.921  0.00  0.00    +0.000 A 
ATOM     16  C   UNL     1      31.808  20.667  68.039  0.00  0.00    +0.000 A 
BRANCH  13  17
ATOM     17  O   UNL     1      27.782  21.189  67.724  0.00  0.00    +0.000 OA
ATOM     18  H   UNL     1      27.373  20.900  66.859  0.00  0.00    +0.000 HD
ENDBRANCH  13  17
BRANCH  15  19
ATOM     19  O   UNL     1      32.086  21.518  65.797  0.00  0.00    +0.000 OA
ATOM     20  H   UNL     1      32.747  22.268  65.827  0.00  0.00    +0.000 HD
ENDBRANCH  15  19
ENDBRANCH   2  11
TORSDOF 5
ENDMDL
MODEL 6
REMARK VINA RESULT:    -6.816      5.320      7.579
REMARK INTER + INTRA:          -8.936
REMARK INTER:                  -8.504
REMARK INTRA:                  -0.432
REMARK UNBOUND:                -0.526
REMARK  Name = 
REMARK  6 active torsions:
REMARK  status: ('A' for Active; 'I' for Inactive)
REMARK    1  A    between atoms: C_1  and  O_2
REMARK    2  A    between atoms: O_2  and  C_3
REMARK    3  A    between atoms: C_6  and  C_7
REMARK    4  A    between atoms: C_8  and  C_9
REMARK    5  A    between atoms: C_11  and  O_12
REMARK    6  A    between atoms: C_14  and  O_15
REMARK                            x       y       z     vdW  Elec       q    Type
REMARK                         _______ _______ _______ _____ _____    ______ ____
ROOT
ATOM      1  C   UNL     1      29.749  22.798  70.626  0.00  0.00    +0.000 C 
ATOM      2  C   UNL     1      30.305  23.978  70.241  0.00  0.00    +0.000 C 
ENDROOT
BRANCH   1   6
ATOM      3  C   UNL     1      31.309  18.995  69.463  0.00  0.00    +0.000 A 
ATOM      4  C   UNL     1      30.115  19.422  68.907  0.00  0.00    +0.000 A 
ATOM      5  C   UNL     1      29.802  20.773  69.187  0.00  0.00    +0.000 A 
ATOM      6  C   UNL     1      30.353  21.484  70.155  0.00  0.00    +0.000 A 
ATOM      7  C   UNL     1      31.493  20.975  70.710  0.00  0.00    +0.000 A 
ATOM      8  C   UNL     1      31.934  19.714  70.389  0.00  0.00    +0.000 A 
BRANCH   3  10
ATOM      9  C   UNL     1      31.873  16.646  69.926  0.00  0.00    +0.000 C 
ATOM     10  O   UNL     1      31.880  17.763  69.048  0.00  0.00    +0.000 OA
ENDBRANCH   3  10
ENDBRANCH   1   6
BRANCH   2  11
ATOM     11  C   UNL     1      31.530  23.985  69.341  0.00  0.00    +0.000 A 
ATOM     12  C   UNL     1      31.403  23.678  67.998  0.00  0.00    +0.000 A 
ATOM     13  C   UNL     1      32.636  23.448  67.342  0.00  0.00    +0.000 A 
ATOM     14  C   UNL     1      33.813  23.826  67.809  0.00  0.00    +0.000 A 
ATOM     15  C   UNL     1      33.859  24.182  69.128  0.00  0.00    +0.000 A 
ATOM     16  C   UNL     1      32.707  24.302  69.868  0.00  0.00    +0.000 A 
BRANCH  13  17
ATOM     17  O   UNL     1      32.607  22.764  66.098  0.00  0.00    +0.000 OA
ATOM     18  H   UNL     1      32.338  23.250  65.267  0.00  0.00    +0.000 HD
ENDBRANCH  13  17
BRANCH  15  19
ATOM     19  O   UNL     1      35.114  24.435  69.741  0.00  0.00    +0.000 OA
ATOM     20  H   UNL     1      35.431  23.852  70.490  0.00  0.00    +0.000 HD
ENDBRANCH  15  19
ENDBRANCH   2  11
TORSDOF 5
ENDMDL
MODEL 7
REMARK VINA RESULT:    -6.757      2.843      4.563
REMARK INTER + INTRA:          -8.863
REMARK INTER:                  -8.338
REMARK INTRA:                  -0.526
REMARK UNBOUND:                -0.526
REMARK  Name = 
REMARK  6 active torsions:
REMARK  status: ('A' for Active; 'I' for Inactive)
REMARK    1  A    between atoms: C_1  and  O_2
REMARK    2  A    between atoms: O_2  and  C_3
REMARK    3  A    between atoms: C_6  and  C_7
REMARK    4  A    between atoms: C_8  and  C_9
REMARK    5  A    between atoms: C_11  and  O_12
REMARK    6  A    between atoms: C_14  and  O_15
REMARK                            x       y       z     vdW  Elec       q    Type
REMARK                         _______ _______ _______ _____ _____    ______ ____
ROOT
ATOM      1  C   UNL     1      30.697  27.691  68.725  0.00  0.00    +0.000 C 
ATOM      2  C   UNL     1      31.895  28.265  68.431  0.00  0.00    +0.000 C 
ENDROOT
BRANCH   1   6
ATOM      3  C   UNL     1      30.780  24.202  71.187  0.00  0.00    +0.000 A 
ATOM      4  C   UNL     1      31.101  25.423  71.754  0.00  0.00    +0.000 A 
ATOM      5  C   UNL     1      30.832  26.533  70.919  0.00  0.00    +0.000 A 
ATOM      6  C   UNL     1      30.643  26.458  69.613  0.00  0.00    +0.000 A 
ATOM      7  C   UNL     1      30.397  25.213  69.105  0.00  0.00    +0.000 A 
ATOM      8  C   UNL     1      30.513  24.093  69.891  0.00  0.00    +0.000 A 
BRANCH   3  10
ATOM      9  C   UNL     1      31.529  21.906  71.654  0.00  0.00    +0.000 C 
ATOM     10  O   UNL     1      30.741  23.036  71.998  0.00  0.00    +0.000 OA
ENDBRANCH   3  10
ENDBRANCH   1   6
BRANCH   2  11
ATOM     11  C   UNL     1      33.179  27.675  68.990  0.00  0.00    +0.000 A 
ATOM     12  C   UNL     1      33.676  26.488  68.479  0.00  0.00    +0.000 A 
ATOM     13  C   UNL     1      34.703  25.911  69.262  0.00  0.00    +0.000 A 
ATOM     14  C   UNL     1      35.401  26.561  70.177  0.00  0.00    +0.000 A 
ATOM     15  C   UNL     1      34.893  27.760  70.592  0.00  0.00    +0.000 A 
ATOM     16  C   UNL     1      33.811  28.325  69.960  0.00  0.00    +0.000 A 
BRANCH  13  17
ATOM     17  O   UNL     1      35.006  24.540  69.050  0.00  0.00    +0.000 OA
ATOM     18  H   UNL     1      35.494  24.258  68.225  0.00  0.00    +0.000 HD
ENDBRANCH  13  17
BRANCH  15  19
ATOM     19  O   UNL     1      35.492  28.433  71.689  0.00  0.00    +0.000 OA
ATOM     20  H   UNL     1      36.487  28.519  71.740  0.00  0.00    +0.000 HD
ENDBRANCH  15  19
ENDBRANCH   2  11
TORSDOF 5
ENDMDL
MODEL 8
REMARK VINA RESULT:    -6.754      2.900      5.125
REMARK INTER + INTRA:          -8.859
REMARK INTER:                  -8.373
REMARK INTRA:                  -0.486
REMARK UNBOUND:                -0.526
REMARK  Name = 
REMARK  6 active torsions:
REMARK  status: ('A' for Active; 'I' for Inactive)
REMARK    1  A    between atoms: C_1  and  O_2
REMARK    2  A    between atoms: O_2  and  C_3
REMARK    3  A    between atoms: C_6  and  C_7
REMARK    4  A    between atoms: C_8  and  C_9
REMARK    5  A    between atoms: C_11  and  O_12
REMARK    6  A    between atoms: C_14  and  O_15
REMARK                            x       y       z     vdW  Elec       q    Type
REMARK                         _______ _______ _______ _____ _____    ______ ____
ROOT
ATOM      1  C   UNL     1      35.600  26.038  69.884  0.00  0.00    +0.000 C 
ATOM      2  C   UNL     1      35.052  27.239  70.211  0.00  0.00    +0.000 C 
ENDROOT
BRANCH   1   6
ATOM      3  C   UNL     1      33.301  22.713  68.505  0.00  0.00    +0.000 A 
ATOM      4  C   UNL     1      33.601  22.800  69.853  0.00  0.00    +0.000 A 
ATOM      5  C   UNL     1      34.170  24.037  70.237  0.00  0.00    +0.000 A 
ATOM      6  C   UNL     1      34.712  24.903  69.399  0.00  0.00    +0.000 A 
ATOM      7  C   UNL     1      34.432  24.723  68.073  0.00  0.00    +0.000 A 
ATOM      8  C   UNL     1      33.767  23.604  67.637  0.00  0.00    +0.000 A 
BRANCH   3  10
ATOM      9  C   UNL     1      32.130  20.586  68.899  0.00  0.00    +0.000 C 
ATOM     10  O   UNL     1      32.487  21.651  68.029  0.00  0.00    +0.000 OA
ENDBRANCH   3  10
ENDBRANCH   1   6
BRANCH   2  11
ATOM     11  C   UNL     1      33.551  27.447  70.091  0.00  0.00    +0.000 A 
ATOM     12  C   UNL     1      33.012  27.936  68.913  0.00  0.00    +0.000 A 
ATOM     13  C   UNL     1      31.662  28.344  69.026  0.00  0.00    +0.000 A 
ATOM     14  C   UNL     1      30.851  27.987  70.006  0.00  0.00    +0.000 A 
ATOM     15  C   UNL     1      31.439  27.448  71.116  0.00  0.00    +0.000 A 
ATOM     16  C   UNL     1      32.779  27.142  71.127  0.00  0.00    +0.000 A 
BRANCH  13  17
ATOM     17  O   UNL     1      31.142  29.197  68.017  0.00  0.00    +0.000 OA
ATOM     18  H   UNL     1      31.737  29.866  67.573  0.00  0.00    +0.000 HD
ENDBRANCH  13  17
BRANCH  15  19
ATOM     19  O   UNL     1      30.655  27.198  72.273  0.00  0.00    +0.000 OA
ATOM     20  H   UNL     1      29.926  27.833  72.529  0.00  0.00    +0.000 HD
ENDBRANCH  15  19
ENDBRANCH   2  11
TORSDOF 5
ENDMDL
MODEL 9
REMARK VINA RESULT:    -6.747      4.746      7.086
REMARK INTER + INTRA:          -8.851
REMARK INTER:                  -8.241
REMARK INTRA:                  -0.610
REMARK UNBOUND:                -0.526
REMARK  Name = 
REMARK  6 active torsions:
REMARK  status: ('A' for Active; 'I' for Inactive)
REMARK    1  A    between atoms: C_1  and  O_2
REMARK    2  A    between atoms: O_2  and  C_3
REMARK    3  A    between atoms: C_6  and  C_7
REMARK    4  A    between atoms: C_8  and  C_9
REMARK    5  A    between atoms: C_11  and  O_12
REMARK    6  A    between atoms: C_14  and  O_15
REMARK                            x       y       z     vdW  Elec       q    Type
REMARK                         _______ _______ _______ _____ _____    ______ ____
ROOT
ATOM      1  C   UNL     1      32.271  20.746  71.494  0.00  0.00    +0.000 C 
ATOM      2  C   UNL     1      32.037  19.880  70.471  0.00  0.00    +0.000 C 
ENDROOT
BRANCH   1   6
ATOM      3  C   UNL     1      31.788  24.904  70.647  0.00  0.00    +0.000 A 
ATOM      4  C   UNL     1      30.665  24.151  70.943  0.00  0.00    +0.000 A 
ATOM      5  C   UNL     1      30.954  22.851  71.420  0.00  0.00    +0.000 A 
ATOM      6  C   UNL     1      32.118  22.242  71.274  0.00  0.00    +0.000 A 
ATOM      7  C   UNL     1      33.175  23.030  70.913  0.00  0.00    +0.000 A 
ATOM      8  C   UNL     1      32.990  24.344  70.560  0.00  0.00    +0.000 A 
BRANCH   3  10
ATOM      9  C   UNL     1      30.838  27.086  71.270  0.00  0.00    +0.000 C 
ATOM     10  O   UNL     1      31.663  26.301  70.421  0.00  0.00    +0.000 OA
ENDBRANCH   3  10
ENDBRANCH   1   6
BRANCH   2  11
ATOM     11  C   UNL     1      31.623  20.408  69.107  0.00  0.00    +0.000 A 
ATOM     12  C   UNL     1      32.574  20.935  68.251  0.00  0.00    +0.000 A 
ATOM     13  C   UNL     1      32.029  21.637  67.150  0.00  0.00    +0.000 A 
ATOM     14  C   UNL     1      30.780  21.524  66.734  0.00  0.00    +0.000 A 
ATOM     15  C   UNL     1      29.902  20.933  67.599  0.00  0.00    +0.000 A 
ATOM     16  C   UNL     1      30.344  20.341  68.758  0.00  0.00    +0.000 A 
BRANCH  13  17
ATOM     17  O   UNL     1      32.883  22.524  66.442  0.00  0.00    +0.000 OA
ATOM     18  H   UNL     1      33.410  22.193  65.660  0.00  0.00    +0.000 HD
ENDBRANCH  13  17
BRANCH  15  19
ATOM     19  O   UNL     1      28.515  20.930  67.296  0.00  0.00    +0.000 OA
ATOM     20  H   UNL     1      28.211  20.971  66.344  0.00  0.00    +0.000 HD
ENDBRANCH  15  19
ENDBRANCH   2  11
TORSDOF 5
ENDMDL
