MODEL 1
REMARK VINA RESULT:    -7.208      0.000      0.000
REMARK INTER + INTRA:          13.173
REMARK INTER:                  -8.095
REMARK INTRA:                  21.268
REMARK UNBOUND:                21.224
REMARK  Name = 
REMARK  3 active torsions:
REMARK  status: ('A' for Active; 'I' for Inactive)
REMARK    1  A    between atoms: C_1  and  O_2
REMARK    2  A    between atoms: O_2  and  C_3
REMARK    3  A    between atoms: C_6  and  C_7
REMARK                            x       y       z     vdW  Elec       q    Type
REMARK                         _______ _______ _______ _____ _____    ______ ____
ROOT
ATOM      1  C   UNL     1      31.291  24.729  71.852  0.00  0.00    +0.000 A 
ATOM      2  C   UNL     1      30.611  23.762  71.030  0.00  0.00    +0.000 A 
ATOM      3  C   UNL     1      30.666  23.872  69.595  0.00  0.00    +0.000 A 
ATOM      4  O   UNL     1      30.065  23.018  68.869  0.00  0.00    +0.000 OA
ATOM      5  C   UNL     1      31.440  25.008  68.949  0.00  0.00    +0.000 A 
ATOM      6  C   UNL     1      30.874  25.836  67.994  0.00  0.00    +0.000 A 
ATOM      7  C   UNL     1      31.785  26.752  67.416  0.00  0.00    +0.000 A 
ATOM      8  C   UNL     1      32.954  27.077  67.940  0.00  0.00    +0.000 A 
ATOM      9  C   UNL     1      33.427  26.258  68.926  0.00  0.00    +0.000 A 
ATOM     10  C   UNL     1      32.644  25.257  69.451  0.00  0.00    +0.000 A 
ATOM     11  O   UNL     1      31.241  24.627  73.193  0.00  0.00    +0.000 OA
ENDROOT
BRANCH   1  15
ATOM     12  C   UNL     1      33.502  28.015  70.253  0.00  0.00    +0.000 A 
ATOM     13  C   UNL     1      34.197  26.911  70.721  0.00  0.00    +0.000 A 
ATOM     14  C   UNL     1      33.372  25.801  71.021  0.00  0.00    +0.000 A 
ATOM     15  C   UNL     1      32.067  25.866  71.206  0.00  0.00    +0.000 A 
ATOM     16  C   UNL     1      31.449  27.011  70.784  0.00  0.00    +0.000 A 
ATOM     17  C   UNL     1      32.180  28.091  70.353  0.00  0.00    +0.000 A 
BRANCH  12  19
ATOM     18  C   UNL     1      35.333  29.648  70.079  0.00  0.00    +0.000 C 
ATOM     19  O   UNL     1      34.190  29.019  69.520  0.00  0.00    +0.000 OA
ENDBRANCH  12  19
ENDBRANCH   1  15
TORSDOF 2
ENDMDL
MODEL 2
REMARK VINA RESULT:    -7.199      1.709      4.500
REMARK INTER + INTRA:          13.183
REMARK INTER:                  -8.055
REMARK INTRA:                  21.238
REMARK UNBOUND:                21.224
REMARK  Name = 
REMARK  3 active torsions:
REMARK  status: ('A' for Active; 'I' for Inactive)
REMARK    1  A    between atoms: C_1  and  O_2
REMARK    2  A    between atoms: O_2  and  C_3
REMARK    3  A    between atoms: C_6  and  C_7
REMARK                            x       y       z     vdW  Elec       q    Type
REMARK                         _______ _______ _______ _____ _____    ______ ____
ROOT
ATOM      1  C   UNL     1      34.614  28.067  70.750  0.00  0.00    +0.000 A 
ATOM      2  C   UNL     1      34.229  29.050  69.770  0.00  0.00    +0.000 A 
ATOM      3  C   UNL     1      33.365  28.679  68.679  0.00  0.00    +0.000 A 
ATOM      4  O   UNL     1      33.026  29.546  67.814  0.00  0.00    +0.000 OA
ATOM      5  C   UNL     1      32.861  27.250  68.560  0.00  0.00    +0.000 A 
ATOM      6  C   UNL     1      32.995  26.516  67.394  0.00  0.00    +0.000 A 
ATOM      7  C   UNL     1      32.352  25.256  67.433  0.00  0.00    +0.000 A 
ATOM      8  C   UNL     1      31.972  24.643  68.540  0.00  0.00    +0.000 A 
ATOM      9  C   UNL     1      31.926  25.407  69.673  0.00  0.00    +0.000 A 
ATOM     10  C   UNL     1      32.414  26.692  69.679  0.00  0.00    +0.000 A 
ATOM     11  O   UNL     1      35.420  28.413  71.770  0.00  0.00    +0.000 OA
ENDROOT
BRANCH   1  15
ATOM     12  C   UNL     1      33.340  23.993  70.599  0.00  0.00    +0.000 A 
ATOM     13  C   UNL     1      32.723  24.849  71.496  0.00  0.00    +0.000 A 
ATOM     14  C   UNL     1      33.061  26.211  71.312  0.00  0.00    +0.000 A 
ATOM     15  C   UNL     1      34.109  26.638  70.632  0.00  0.00    +0.000 A 
ATOM     16  C   UNL     1      34.717  25.724  69.815  0.00  0.00    +0.000 A 
ATOM     17  C   UNL     1      34.352  24.400  69.842  0.00  0.00    +0.000 A 
BRANCH  12  19
ATOM     18  C   UNL     1      31.954  22.104  71.347  0.00  0.00    +0.000 C 
ATOM     19  O   UNL     1      32.794  22.701  70.371  0.00  0.00    +0.000 OA
ENDBRANCH  12  19
ENDBRANCH   1  15
TORSDOF 2
ENDMDL
MODEL 3
REMARK VINA RESULT:    -7.185      2.119      3.961
REMARK INTER + INTRA:          13.199
REMARK INTER:                  -8.093
REMARK INTRA:                  21.292
REMARK UNBOUND:                21.224
REMARK  Name = 
REMARK  3 active torsions:
REMARK  status: ('A' for Active; 'I' for Inactive)
REMARK    1  A    between atoms: C_1  and  O_2
REMARK    2  A    between atoms: O_2  and  C_3
REMARK    3  A    between atoms: C_6  and  C_7
REMARK                            x       y       z     vdW  Elec       q    Type
REMARK                         _______ _______ _______ _____ _____    ______ ____
ROOT
ATOM      1  C   UNL     1      32.659  23.519  67.372  0.00  0.00    +0.000 A 
ATOM      2  C   UNL     1      33.336  22.912  68.490  0.00  0.00    +0.000 A 
ATOM      3  C   UNL     1      33.635  23.695  69.661  0.00  0.00    +0.000 A 
ATOM      4  O   UNL     1      34.233  23.160  70.647  0.00  0.00    +0.000 OA
ATOM      5  C   UNL     1      33.237  25.161  69.718  0.00  0.00    +0.000 A 
ATOM      6  C   UNL     1      34.141  26.158  70.041  0.00  0.00    +0.000 A 
ATOM      7  C   UNL     1      33.558  27.441  70.169  0.00  0.00    +0.000 A 
ATOM      8  C   UNL     1      32.373  27.777  69.690  0.00  0.00    +0.000 A 
ATOM      9  C   UNL     1      31.552  26.747  69.325  0.00  0.00    +0.000 A 
ATOM     10  C   UNL     1      32.010  25.451  69.302  0.00  0.00    +0.000 A 
ATOM     11  O   UNL     1      32.379  22.788  66.278  0.00  0.00    +0.000 OA
ENDROOT
BRANCH   1  15
ATOM     12  C   UNL     1      31.471  27.620  67.304  0.00  0.00    +0.000 A 
ATOM     13  C   UNL     1      30.510  26.654  67.556  0.00  0.00    +0.000 A 
ATOM     14  C   UNL     1      31.042  25.361  67.773  0.00  0.00    +0.000 A 
ATOM     15  C   UNL     1      32.260  24.984  67.429  0.00  0.00    +0.000 A 
ATOM     16  C   UNL     1      33.143  25.983  67.127  0.00  0.00    +0.000 A 
ATOM     17  C   UNL     1      32.725  27.288  67.024  0.00  0.00    +0.000 A 
BRANCH  12  19
ATOM     18  C   UNL     1      31.337  29.915  66.430  0.00  0.00    +0.000 C 
ATOM     19  O   UNL     1      31.153  28.992  67.492  0.00  0.00    +0.000 OA
ENDBRANCH  12  19
ENDBRANCH   1  15
TORSDOF 2
ENDMDL
MODEL 4
REMARK VINA RESULT:    -7.121      2.185      4.752
REMARK INTER + INTRA:          13.270
REMARK INTER:                  -8.016
REMARK INTRA:                  21.287
REMARK UNBOUND:                21.224
REMARK  Name = 
REMARK  3 active torsions:
REMARK  status: ('A' for Active; 'I' for Inactive)
REMARK    1  A    between atoms: C_1  and  O_2
REMARK    2  A    between atoms: O_2  and  C_3
REMARK    3  A    between atoms: C_6  and  C_7
REMARK                            x       y       z     vdW  Elec       q    Type
REMARK                         _______ _______ _______ _____ _____    ______ ____
ROOT
ATOM      1  C   UNL     1      31.273  26.526  70.144  0.00  0.00    +0.000 A 
ATOM      2  C   UNL     1      31.199  26.273  71.561  0.00  0.00    +0.000 A 
ATOM      3  C   UNL     1      31.371  24.934  72.062  0.00  0.00    +0.000 A 
ATOM      4  O   UNL     1      31.305  24.710  73.312  0.00  0.00    +0.000 OA
ATOM      5  C   UNL     1      31.628  23.788  71.098  0.00  0.00    +0.000 A 
ATOM      6  C   UNL     1      30.871  22.629  71.112  0.00  0.00    +0.000 A 
ATOM      7  C   UNL     1      31.341  21.627  70.230  0.00  0.00    +0.000 A 
ATOM      8  C   UNL     1      32.170  21.843  69.224  0.00  0.00    +0.000 A 
ATOM      9  C   UNL     1      32.837  23.036  69.232  0.00  0.00    +0.000 A 
ATOM     10  C   UNL     1      32.525  24.015  70.146  0.00  0.00    +0.000 A 
ATOM     11  O   UNL     1      31.113  27.777  69.675  0.00  0.00    +0.000 OA
ENDROOT
BRANCH   1  15
ATOM     12  C   UNL     1      31.964  23.459  67.254  0.00  0.00    +0.000 A 
ATOM     13  C   UNL     1      33.018  24.280  67.616  0.00  0.00    +0.000 A 
ATOM     14  C   UNL     1      32.743  25.109  68.729  0.00  0.00    +0.000 A 
ATOM     15  C   UNL     1      31.532  25.380  69.180  0.00  0.00    +0.000 A 
ATOM     16  C   UNL     1      30.522  24.574  68.732  0.00  0.00    +0.000 A 
ATOM     17  C   UNL     1      30.743  23.651  67.739  0.00  0.00    +0.000 A 
BRANCH  12  19
ATOM     18  C   UNL     1      31.135  21.627  65.837  0.00  0.00    +0.000 C 
ATOM     19  O   UNL     1      32.212  22.301  66.469  0.00  0.00    +0.000 OA
ENDBRANCH  12  19
ENDBRANCH   1  15
TORSDOF 2
ENDMDL
MODEL 5
REMARK VINA RESULT:    -7.108      2.272      3.774
REMARK INTER + INTRA:          13.284
REMARK INTER:                  -7.960
REMARK INTRA:                  21.244
REMARK UNBOUND:                21.224
REMARK  Name = 
REMARK  3 active torsions:
REMARK  status: ('A' for Active; 'I' for Inactive)
REMARK    1  A    between atoms: C_1  and  O_2
REMARK    2  A    between atoms: O_2  and  C_3
REMARK    3  A    between atoms: C_6  and  C_7
REMARK                            x       y       z     vdW  Elec       q    Type
REMARK                         _______ _______ _______ _____ _____    ______ ____
ROOT
ATOM      1  C   UNL     1      33.130  22.511  66.922  0.00  0.00    +0.000 A 
ATOM      2  C   UNL     1      31.805  22.058  66.587  0.00  0.00    +0.000 A 
ATOM      3  C   UNL     1      30.665  22.580  67.296  0.00  0.00    +0.000 A 
ATOM      4  O   UNL     1      29.495  22.180  67.001  0.00  0.00    +0.000 OA
ATOM      5  C   UNL     1      30.861  23.608  68.398  0.00  0.00    +0.000 A 
ATOM      6  C   UNL     1      30.318  23.447  69.661  0.00  0.00    +0.000 A 
ATOM      7  C   UNL     1      30.498  24.565  70.510  0.00  0.00    +0.000 A 
ATOM      8  C   UNL     1      31.384  25.525  70.307  0.00  0.00    +0.000 A 
ATOM      9  C   UNL     1      31.935  25.589  69.057  0.00  0.00    +0.000 A 
ATOM     10  C   UNL     1      31.700  24.602  68.129  0.00  0.00    +0.000 A 
ATOM     11  O   UNL     1      34.196  22.024  66.261  0.00  0.00    +0.000 OA
ENDROOT
BRANCH   1  15
ATOM     12  C   UNL     1      33.916  25.372  69.994  0.00  0.00    +0.000 A 
ATOM     13  C   UNL     1      33.939  25.791  68.674  0.00  0.00    +0.000 A 
ATOM     14  C   UNL     1      33.453  24.827  67.759  0.00  0.00    +0.000 A 
ATOM     15  C   UNL     1      33.326  23.540  68.024  0.00  0.00    +0.000 A 
ATOM     16  C   UNL     1      33.381  23.182  69.343  0.00  0.00    +0.000 A 
ATOM     17  C   UNL     1      33.720  24.097  70.309  0.00  0.00    +0.000 A 
BRANCH  12  19
ATOM     18  C   UNL     1      34.658  27.554  70.854  0.00  0.00    +0.000 C 
ATOM     19  O   UNL     1      33.954  26.335  71.038  0.00  0.00    +0.000 OA
ENDBRANCH  12  19
ENDBRANCH   1  15
TORSDOF 2
ENDMDL
MODEL 6
REMARK VINA RESULT:    -7.092      1.433      3.077
REMARK INTER + INTRA:          13.302
REMARK INTER:                  -7.971
REMARK INTRA:                  21.273
REMARK UNBOUND:                21.224
REMARK  Name = 
REMARK  3 active torsions:
REMARK  status: ('A' for Active; 'I' for Inactive)
REMARK    1  A    between atoms: C_1  and  O_2
REMARK    2  A    between atoms: O_2  and  C_3
REMARK    3  A    between atoms: C_6  and  C_7
REMARK                            x       y       z     vdW  Elec       q    Type
REMARK                         _______ _______ _______ _____ _____    ______ ____
ROOT
ATOM      1  C   UNL     1      32.038  23.741  67.530  0.00  0.00    +0.000 A 
ATOM      2  C   UNL     1      30.883  23.093  68.098  0.00  0.00    +0.000 A 
ATOM      3  C   UNL     1      30.147  23.734  69.157  0.00  0.00    +0.000 A 
ATOM      4  O   UNL     1      29.129  23.163  69.659  0.00  0.00    +0.000 OA
ATOM      5  C   UNL     1      30.589  25.092  69.677  0.00  0.00    +0.000 A 
ATOM      6  C   UNL     1      30.796  25.335  71.024  0.00  0.00    +0.000 A 
ATOM      7  C   UNL     1      31.078  26.688  71.326  0.00  0.00    +0.000 A 
ATOM      8  C   UNL     1      31.473  27.587  70.442  0.00  0.00    +0.000 A 
ATOM      9  C   UNL     1      31.304  27.259  69.126  0.00  0.00    +0.000 A 
ATOM     10  C   UNL     1      30.904  25.997  68.757  0.00  0.00    +0.000 A 
ATOM     11  O   UNL     1      32.726  23.144  66.541  0.00  0.00    +0.000 OA
ENDROOT
BRANCH   1  15
ATOM     12  C   UNL     1      33.471  27.542  68.849  0.00  0.00    +0.000 A 
ATOM     13  C   UNL     1      32.739  27.479  67.675  0.00  0.00    +0.000 A 
ATOM     14  C   UNL     1      32.130  26.222  67.447  0.00  0.00    +0.000 A 
ATOM     15  C   UNL     1      32.479  25.100  68.049  0.00  0.00    +0.000 A 
ATOM     16  C   UNL     1      33.260  25.226  69.165  0.00  0.00    +0.000 A 
ATOM     17  C   UNL     1      33.784  26.444  69.526  0.00  0.00    +0.000 A 
BRANCH  12  19
ATOM     18  C   UNL     1      34.933  28.967  70.221  0.00  0.00    +0.000 C 
ATOM     19  O   UNL     1      33.769  28.807  69.423  0.00  0.00    +0.000 OA
ENDBRANCH  12  19
ENDBRANCH   1  15
TORSDOF 2
ENDMDL
MODEL 7
REMARK VINA RESULT:    -7.085      2.482      5.602
REMARK INTER + INTRA:          13.311
REMARK INTER:                  -7.961
REMARK INTRA:                  21.272
REMARK UNBOUND:                21.224
REMARK  Name = 
REMARK  3 active torsions:
REMARK  status: ('A' for Active; 'I' for Inactive)
REMARK    1  A    between atoms: C_1  and  O_2
REMARK    2  A    between atoms: O_2  and  C_3
REMARK    3  A    between atoms: C_6  and  C_7
REMARK                            x       y       z     vdW  Elec       q    Type
REMARK                         _______ _______ _______ _____ _____    ______ ____
ROOT
ATOM      1  C   UNL     1      30.906  24.905  71.022  0.00  0.00    +0.000 A 
ATOM      2  C   UNL     1      31.295  25.985  70.152  0.00  0.00    +0.000 A 
ATOM      3  C   UNL     1      31.376  25.769  68.730  0.00  0.00    +0.000 A 
ATOM      4  O   UNL     1      31.721  26.722  67.962  0.00  0.00    +0.000 OA
ATOM      5  C   UNL     1      31.052  24.403  68.149  0.00  0.00    +0.000 A 
ATOM      6  C   UNL     1      31.917  23.743  67.292  0.00  0.00    +0.000 A 
ATOM      7  C   UNL     1      31.388  22.545  66.754  0.00  0.00    +0.000 A 
ATOM      8  C   UNL     1      30.352  21.894  67.253  0.00  0.00    +0.000 A 
ATOM      9  C   UNL     1      29.576  22.579  68.145  0.00  0.00    +0.000 A 
ATOM     10  C   UNL     1      29.960  23.811  68.617  0.00  0.00    +0.000 A 
ATOM     11  O   UNL     1      30.830  25.106  72.350  0.00  0.00    +0.000 OA
ENDROOT
BRANCH   1  15
ATOM     12  C   UNL     1      29.974  20.984  69.611  0.00  0.00    +0.000 A 
ATOM     13  C   UNL     1      28.933  21.836  69.941  0.00  0.00    +0.000 A 
ATOM     14  C   UNL     1      29.340  23.169  70.184  0.00  0.00    +0.000 A 
ATOM     15  C   UNL     1      30.581  23.539  70.441  0.00  0.00    +0.000 A 
ATOM     16  C   UNL     1      31.559  22.626  70.156  0.00  0.00    +0.000 A 
ATOM     17  C   UNL     1      31.240  21.342  69.786  0.00  0.00    +0.000 A 
BRANCH  12  19
ATOM     18  C   UNL     1      30.464  18.605  69.222  0.00  0.00    +0.000 C 
ATOM     19  O   UNL     1      29.697  19.764  68.937  0.00  0.00    +0.000 OA
ENDBRANCH  12  19
ENDBRANCH   1  15
TORSDOF 2
ENDMDL
MODEL 8
REMARK VINA RESULT:    -7.083      2.535      5.786
REMARK INTER + INTRA:          13.312
REMARK INTER:                  -7.911
REMARK INTRA:                  21.224
REMARK UNBOUND:                21.224
REMARK  Name = 
REMARK  3 active torsions:
REMARK  status: ('A' for Active; 'I' for Inactive)
REMARK    1  A    between atoms: C_1  and  O_2
REMARK    2  A    between atoms: O_2  and  C_3
REMARK    3  A    between atoms: C_6  and  C_7
REMARK                            x       y       z     vdW  Elec       q    Type
REMARK                         _______ _______ _______ _____ _____    ______ ____
ROOT
ATOM      1  C   UNL     1      33.511  25.148  68.268  0.00  0.00    +0.000 A 
ATOM      2  C   UNL     1      33.853  26.050  69.338  0.00  0.00    +0.000 A 
ATOM      3  C   UNL     1      33.539  25.702  70.700  0.00  0.00    +0.000 A 
ATOM      4  O   UNL     1      33.839  26.498  71.644  0.00  0.00    +0.000 OA
ATOM      5  C   UNL     1      32.847  24.384  71.008  0.00  0.00    +0.000 A 
ATOM      6  C   UNL     1      31.697  24.317  71.776  0.00  0.00    +0.000 A 
ATOM      7  C   UNL     1      31.274  22.998  72.060  0.00  0.00    +0.000 A 
ATOM      8  C   UNL     1      31.669  21.925  71.399  0.00  0.00    +0.000 A 
ATOM      9  C   UNL     1      32.772  22.073  70.604  0.00  0.00    +0.000 A 
ATOM     10  C   UNL     1      33.322  23.313  70.383  0.00  0.00    +0.000 A 
ATOM     11  O   UNL     1      33.804  25.472  66.995  0.00  0.00    +0.000 OA
ENDROOT
BRANCH   1  15
ATOM     12  C   UNL     1      31.545  21.409  68.899  0.00  0.00    +0.000 A 
ATOM     13  C   UNL     1      32.910  21.411  68.661  0.00  0.00    +0.000 A 
ATOM     14  C   UNL     1      33.494  22.699  68.686  0.00  0.00    +0.000 A 
ATOM     15  C   UNL     1      32.820  23.829  68.576  0.00  0.00    +0.000 A 
ATOM     16  C   UNL     1      31.466  23.750  68.753  0.00  0.00    +0.000 A 
ATOM     17  C   UNL     1      30.839  22.533  68.869  0.00  0.00    +0.000 A 
BRANCH  12  19
ATOM     18  C   UNL     1      31.434  18.953  68.944  0.00  0.00    +0.000 C 
ATOM     19  O   UNL     1      30.908  20.214  69.327  0.00  0.00    +0.000 OA
ENDBRANCH  12  19
ENDBRANCH   1  15
TORSDOF 2
ENDMDL
MODEL 9
REMARK VINA RESULT:    -7.051      3.359      6.618
REMARK INTER + INTRA:          13.348
REMARK INTER:                  -7.907
REMARK INTRA:                  21.255
REMARK UNBOUND:                21.224
REMARK  Name = 
REMARK  3 active torsions:
REMARK  status: ('A' for Active; 'I' for Inactive)
REMARK    1  A    between atoms: C_1  and  O_2
REMARK    2  A    between atoms: O_2  and  C_3
REMARK    3  A    between atoms: C_6  and  C_7
REMARK                            x       y       z     vdW  Elec       q    Type
REMARK                         _______ _______ _______ _____ _____    ______ ____
ROOT
ATOM      1  C   UNL     1      33.475  22.827  67.299  0.00  0.00    +0.000 A 
ATOM      2  C   UNL     1      33.350  24.219  67.649  0.00  0.00    +0.000 A 
ATOM      3  C   UNL     1      32.268  24.653  68.495  0.00  0.00    +0.000 A 
ATOM      4  O   UNL     1      32.156  25.881  68.804  0.00  0.00    +0.000 OA
ATOM      5  C   UNL     1      31.259  23.643  69.017  0.00  0.00    +0.000 A 
ATOM      6  C   UNL     1      29.894  23.822  68.870  0.00  0.00    +0.000 A 
ATOM      7  C   UNL     1      29.113  22.844  69.532  0.00  0.00    +0.000 A 
ATOM      8  C   UNL     1      29.569  21.674  69.944  0.00  0.00    +0.000 A 
ATOM      9  C   UNL     1      30.928  21.538  70.003  0.00  0.00    +0.000 A 
ATOM     10  C   UNL     1      31.758  22.510  69.496  0.00  0.00    +0.000 A 
ATOM     11  O   UNL     1      34.486  22.421  66.509  0.00  0.00    +0.000 OA
ENDROOT
BRANCH   1  15
ATOM     12  C   UNL     1      30.746  19.824  68.631  0.00  0.00    +0.000 A 
ATOM     13  C   UNL     1      31.973  19.936  69.265  0.00  0.00    +0.000 A 
ATOM     14  C   UNL     1      32.703  21.091  68.899  0.00  0.00    +0.000 A 
ATOM     15  C   UNL     1      32.467  21.817  67.822  0.00  0.00    +0.000 A 
ATOM     16  C   UNL     1      31.266  21.611  67.201  0.00  0.00    +0.000 A 
ATOM     17  C   UNL     1      30.438  20.585  67.587  0.00  0.00    +0.000 A 
BRANCH  12  19
ATOM     18  C   UNL     1      30.051  17.659  69.568  0.00  0.00    +0.000 C 
ATOM     19  O   UNL     1      29.740  18.991  69.189  0.00  0.00    +0.000 OA
ENDBRANCH  12  19
ENDBRANCH   1  15
TORSDOF 2
ENDMDL
