MODEL 1
REMARK VINA RESULT:    -7.726      0.000      0.000
REMARK INTER + INTRA:         -10.947
REMARK INTER:                 -10.283
REMARK INTRA:                  -0.664
REMARK UNBOUND:                -0.737
REMARK  Name = 
REMARK  8 active torsions:
REMARK  status: ('A' for Active; 'I' for Inactive)
REMARK    1  A    between atoms: C_1  and  O_2
REMARK    2  A    between atoms: O_2  and  C_3
REMARK    3  A    between atoms: C_6  and  C_7
REMARK    4  A    between atoms: C_8  and  C_9
REMARK    5  A    between atoms: C_9  and  C_11
REMARK    6  A    between atoms: C_14  and  O_15
REMARK    7  A    between atoms: O_15  and  C_16
REMARK    8  A    between atoms: C_18  and  O_19
REMARK                            x       y       z     vdW  Elec       q    Type
REMARK                         _______ _______ _______ _____ _____    ______ ____
ROOT
ATOM      1  C   UNL     1      34.221  24.548  68.745  0.00  0.00    +0.000 C 
ATOM      2  O   UNL     1      34.316  24.644  67.481  0.00  0.00    +0.000 OA
ENDROOT
BRANCH   1   3
ATOM      3  C   UNL     1      34.501  25.758  69.621  0.00  0.00    +0.000 A 
ATOM      4  C   UNL     1      33.440  26.467  70.161  0.00  0.00    +0.000 A 
ATOM      5  C   UNL     1      33.807  27.720  70.706  0.00  0.00    +0.000 A 
ATOM      6  C   UNL     1      35.041  28.069  71.022  0.00  0.00    +0.000 A 
ATOM      7  C   UNL     1      36.041  27.288  70.513  0.00  0.00    +0.000 A 
ATOM      8  C   UNL     1      35.759  26.116  69.855  0.00  0.00    +0.000 A 
BRANCH   6   9
ATOM      9  O   UNL     1      35.313  29.192  71.847  0.00  0.00    +0.000 OA
ATOM     10  C   UNL     1      36.483  29.966  71.627  0.00  0.00    +0.000 C 
ENDBRANCH   6   9
BRANCH   8  11
ATOM     11  O   UNL     1      36.820  25.278  69.420  0.00  0.00    +0.000 OA
ATOM     12  H   UNL     1      37.235  24.626  70.054  0.00  0.00    +0.000 HD
ENDBRANCH   8  11
ENDBRANCH   1   3
BRANCH   1  14
ATOM     13  C   UNL     1      32.708  22.574  68.957  0.00  0.00    +0.000 C 
ATOM     14  C   UNL     1      33.825  23.225  69.380  0.00  0.00    +0.000 C 
BRANCH  13  18
ATOM     15  C   UNL     1      31.824  18.791  70.730  0.00  0.00    +0.000 A 
ATOM     16  C   UNL     1      32.270  19.818  71.544  0.00  0.00    +0.000 A 
ATOM     17  C   UNL     1      32.321  21.078  70.901  0.00  0.00    +0.000 A 
ATOM     18  C   UNL     1      32.312  21.251  69.592  0.00  0.00    +0.000 A 
ATOM     19  C   UNL     1      31.928  20.177  68.839  0.00  0.00    +0.000 A 
ATOM     20  C   UNL     1      31.730  18.945  69.414  0.00  0.00    +0.000 A 
BRANCH  15  22
ATOM     21  C   UNL     1      30.810  16.550  70.724  0.00  0.00    +0.000 C 
ATOM     22  O   UNL     1      31.611  17.535  71.359  0.00  0.00    +0.000 OA
ENDBRANCH  15  22
ENDBRANCH  13  18
ENDBRANCH   1  14
TORSDOF 6
ENDMDL
MODEL 2
REMARK VINA RESULT:    -7.713      2.221      8.613
REMARK INTER + INTRA:         -10.930
REMARK INTER:                 -10.179
REMARK INTRA:                  -0.751
REMARK UNBOUND:                -0.737
REMARK  Name = 
REMARK  8 active torsions:
REMARK  status: ('A' for Active; 'I' for Inactive)
REMARK    1  A    between atoms: C_1  and  O_2
REMARK    2  A    between atoms: O_2  and  C_3
REMARK    3  A    between atoms: C_6  and  C_7
REMARK    4  A    between atoms: C_8  and  C_9
REMARK    5  A    between atoms: C_9  and  C_11
REMARK    6  A    between atoms: C_14  and  O_15
REMARK    7  A    between atoms: O_15  and  C_16
REMARK    8  A    between atoms: C_18  and  O_19
REMARK                            x       y       z     vdW  Elec       q    Type
REMARK                         _______ _______ _______ _____ _____    ______ ____
ROOT
ATOM      1  C   UNL     1      31.633  22.766  71.649  0.00  0.00    +0.000 C 
ATOM      2  O   UNL     1      30.843  22.809  72.643  0.00  0.00    +0.000 OA
ENDROOT
BRANCH   1   3
ATOM      3  C   UNL     1      31.711  21.511  70.795  0.00  0.00    +0.000 A 
ATOM      4  C   UNL     1      31.293  21.561  69.474  0.00  0.00    +0.000 A 
ATOM      5  C   UNL     1      31.138  20.289  68.874  0.00  0.00    +0.000 A 
ATOM      6  C   UNL     1      31.661  19.170  69.342  0.00  0.00    +0.000 A 
ATOM      7  C   UNL     1      32.117  19.206  70.630  0.00  0.00    +0.000 A 
ATOM      8  C   UNL     1      32.178  20.388  71.327  0.00  0.00    +0.000 A 
BRANCH   6   9
ATOM      9  O   UNL     1      31.746  17.996  68.549  0.00  0.00    +0.000 OA
ATOM     10  C   UNL     1      31.628  16.718  69.159  0.00  0.00    +0.000 C 
ENDBRANCH   6   9
BRANCH   8  11
ATOM     11  O   UNL     1      32.743  20.409  72.630  0.00  0.00    +0.000 OA
ATOM     12  H   UNL     1      33.702  20.664  72.755  0.00  0.00    +0.000 HD
ENDBRANCH   8  11
ENDBRANCH   1   3
BRANCH   1  14
ATOM     13  C   UNL     1      31.981  25.005  70.603  0.00  0.00    +0.000 C 
ATOM     14  C   UNL     1      32.501  23.968  71.314  0.00  0.00    +0.000 C 
BRANCH  13  18
ATOM     15  C   UNL     1      34.277  28.515  69.798  0.00  0.00    +0.000 A 
ATOM     16  C   UNL     1      34.547  27.793  70.948  0.00  0.00    +0.000 A 
ATOM     17  C   UNL     1      33.890  26.541  71.008  0.00  0.00    +0.000 A 
ATOM     18  C   UNL     1      32.848  26.207  70.268  0.00  0.00    +0.000 A 
ATOM     19  C   UNL     1      32.592  27.001  69.185  0.00  0.00    +0.000 A 
ATOM     20  C   UNL     1      33.283  28.172  68.987  0.00  0.00    +0.000 A 
BRANCH  15  22
ATOM     21  C   UNL     1      36.292  29.858  70.231  0.00  0.00    +0.000 C 
ATOM     22  O   UNL     1      35.022  29.711  69.615  0.00  0.00    +0.000 OA
ENDBRANCH  15  22
ENDBRANCH  13  18
ENDBRANCH   1  14
TORSDOF 6
ENDMDL
MODEL 3
REMARK VINA RESULT:    -7.672      2.467      3.557
REMARK INTER + INTRA:         -10.875
REMARK INTER:                 -10.160
REMARK INTRA:                  -0.715
REMARK UNBOUND:                -0.737
REMARK  Name = 
REMARK  8 active torsions:
REMARK  status: ('A' for Active; 'I' for Inactive)
REMARK    1  A    between atoms: C_1  and  O_2
REMARK    2  A    between atoms: O_2  and  C_3
REMARK    3  A    between atoms: C_6  and  C_7
REMARK    4  A    between atoms: C_8  and  C_9
REMARK    5  A    between atoms: C_9  and  C_11
REMARK    6  A    between atoms: C_14  and  O_15
REMARK    7  A    between atoms: O_15  and  C_16
REMARK    8  A    between atoms: C_18  and  O_19
REMARK                            x       y       z     vdW  Elec       q    Type
REMARK                         _______ _______ _______ _____ _____    ______ ____
ROOT
ATOM      1  C   UNL     1      31.552  23.058  71.897  0.00  0.00    +0.000 C 
ATOM      2  O   UNL     1      31.110  23.141  73.085  0.00  0.00    +0.000 OA
ENDROOT
BRANCH   1   3
ATOM      3  C   UNL     1      32.266  24.243  71.268  0.00  0.00    +0.000 A 
ATOM      4  C   UNL     1      33.382  24.022  70.476  0.00  0.00    +0.000 A 
ATOM      5  C   UNL     1      34.123  25.193  70.191  0.00  0.00    +0.000 A 
ATOM      6  C   UNL     1      33.662  26.423  70.324  0.00  0.00    +0.000 A 
ATOM      7  C   UNL     1      32.519  26.567  71.061  0.00  0.00    +0.000 A 
ATOM      8  C   UNL     1      31.809  25.471  71.487  0.00  0.00    +0.000 A 
BRANCH   6   9
ATOM      9  O   UNL     1      34.317  27.536  69.734  0.00  0.00    +0.000 OA
ATOM     10  C   UNL     1      34.640  28.671  70.524  0.00  0.00    +0.000 C 
ENDBRANCH   6   9
BRANCH   8  11
ATOM     11  O   UNL     1      30.577  25.651  72.168  0.00  0.00    +0.000 OA
ATOM     12  H   UNL     1      30.564  26.062  73.080  0.00  0.00    +0.000 HD
ENDBRANCH   8  11
ENDBRANCH   1   3
BRANCH   1  14
ATOM     13  C   UNL     1      32.133  20.685  71.385  0.00  0.00    +0.000 C 
ATOM     14  C   UNL     1      31.367  21.774  71.105  0.00  0.00    +0.000 C 
BRANCH  13  18
ATOM     15  C   UNL     1      31.380  17.099  69.191  0.00  0.00    +0.000 A 
ATOM     16  C   UNL     1      31.295  18.313  68.530  0.00  0.00    +0.000 A 
ATOM     17  C   UNL     1      31.774  19.411  69.284  0.00  0.00    +0.000 A 
ATOM     18  C   UNL     1      31.948  19.402  70.593  0.00  0.00    +0.000 A 
ATOM     19  C   UNL     1      31.953  18.175  71.197  0.00  0.00    +0.000 A 
ATOM     20  C   UNL     1      31.624  17.041  70.496  0.00  0.00    +0.000 A 
BRANCH  15  22
ATOM     21  C   UNL     1      29.853  15.234  68.703  0.00  0.00    +0.000 C 
ATOM     22  O   UNL     1      31.052  15.944  68.433  0.00  0.00    +0.000 OA
ENDBRANCH  15  22
ENDBRANCH  13  18
ENDBRANCH   1  14
TORSDOF 6
ENDMDL
MODEL 4
REMARK VINA RESULT:    -7.646      3.687      8.665
REMARK INTER + INTRA:         -10.842
REMARK INTER:                 -10.163
REMARK INTRA:                  -0.678
REMARK UNBOUND:                -0.737
REMARK  Name = 
REMARK  8 active torsions:
REMARK  status: ('A' for Active; 'I' for Inactive)
REMARK    1  A    between atoms: C_1  and  O_2
REMARK    2  A    between atoms: O_2  and  C_3
REMARK    3  A    between atoms: C_6  and  C_7
REMARK    4  A    between atoms: C_8  and  C_9
REMARK    5  A    between atoms: C_9  and  C_11
REMARK    6  A    between atoms: C_14  and  O_15
REMARK    7  A    between atoms: O_15  and  C_16
REMARK    8  A    between atoms: C_18  and  O_19
REMARK                            x       y       z     vdW  Elec       q    Type
REMARK                         _______ _______ _______ _____ _____    ______ ____
ROOT
ATOM      1  C   UNL     1      31.321  22.518  71.438  0.00  0.00    +0.000 C 
ATOM      2  O   UNL     1      31.029  22.514  72.675  0.00  0.00    +0.000 OA
ENDROOT
BRANCH   1   3
ATOM      3  C   UNL     1      31.506  21.204  70.697  0.00  0.00    +0.000 A 
ATOM      4  C   UNL     1      30.983  21.063  69.422  0.00  0.00    +0.000 A 
ATOM      5  C   UNL     1      30.960  19.728  68.956  0.00  0.00    +0.000 A 
ATOM      6  C   UNL     1      31.670  18.741  69.473  0.00  0.00    +0.000 A 
ATOM      7  C   UNL     1      32.217  18.967  70.706  0.00  0.00    +0.000 A 
ATOM      8  C   UNL     1      32.166  20.212  71.284  0.00  0.00    +0.000 A 
BRANCH   6   9
ATOM      9  O   UNL     1      31.856  17.513  68.786  0.00  0.00    +0.000 OA
ATOM     10  C   UNL     1      31.875  16.291  69.509  0.00  0.00    +0.000 C 
ENDBRANCH   6   9
BRANCH   8  11
ATOM     11  O   UNL     1      32.824  20.441  72.522  0.00  0.00    +0.000 OA
ATOM     12  H   UNL     1      33.685  19.975  72.725  0.00  0.00    +0.000 HD
ENDBRANCH   8  11
ENDBRANCH   1   3
BRANCH   1  14
ATOM     13  C   UNL     1      30.393  24.475  70.197  0.00  0.00    +0.000 C 
ATOM     14  C   UNL     1      31.484  23.836  70.700  0.00  0.00    +0.000 C 
BRANCH  13  18
ATOM     15  C   UNL     1      31.084  28.133  68.105  0.00  0.00    +0.000 A 
ATOM     16  C   UNL     1      30.904  26.972  67.372  0.00  0.00    +0.000 A 
ATOM     17  C   UNL     1      30.466  25.869  68.143  0.00  0.00    +0.000 A 
ATOM     18  C   UNL     1      30.556  25.793  69.459  0.00  0.00    +0.000 A 
ATOM     19  C   UNL     1      30.804  26.963  70.120  0.00  0.00    +0.000 A 
ATOM     20  C   UNL     1      31.109  28.113  69.433  0.00  0.00    +0.000 A 
BRANCH  15  22
ATOM     21  C   UNL     1      32.724  29.743  67.228  0.00  0.00    +0.000 C 
ATOM     22  O   UNL     1      31.379  29.308  67.363  0.00  0.00    +0.000 OA
ENDBRANCH  15  22
ENDBRANCH  13  18
ENDBRANCH   1  14
TORSDOF 6
ENDMDL
MODEL 5
REMARK VINA RESULT:    -7.619      3.475      9.060
REMARK INTER + INTRA:         -10.806
REMARK INTER:                 -10.460
REMARK INTRA:                  -0.345
REMARK UNBOUND:                -0.737
REMARK  Name = 
REMARK  8 active torsions:
REMARK  status: ('A' for Active; 'I' for Inactive)
REMARK    1  A    between atoms: C_1  and  O_2
REMARK    2  A    between atoms: O_2  and  C_3
REMARK    3  A    between atoms: C_6  and  C_7
REMARK    4  A    between atoms: C_8  and  C_9
REMARK    5  A    between atoms: C_9  and  C_11
REMARK    6  A    between atoms: C_14  and  O_15
REMARK    7  A    between atoms: O_15  and  C_16
REMARK    8  A    between atoms: C_18  and  O_19
REMARK                            x       y       z     vdW  Elec       q    Type
REMARK                         _______ _______ _______ _____ _____    ______ ____
ROOT
ATOM      1  C   UNL     1      32.111  20.160  71.526  0.00  0.00    +0.000 C 
ATOM      2  O   UNL     1      32.428  19.978  72.743  0.00  0.00    +0.000 OA
ENDROOT
BRANCH   1   3
ATOM      3  C   UNL     1      31.916  18.966  70.606  0.00  0.00    +0.000 A 
ATOM      4  C   UNL     1      31.726  19.177  69.249  0.00  0.00    +0.000 A 
ATOM      5  C   UNL     1      31.271  18.035  68.550  0.00  0.00    +0.000 A 
ATOM      6  C   UNL     1      31.349  16.797  69.004  0.00  0.00    +0.000 A 
ATOM      7  C   UNL     1      31.607  16.655  70.340  0.00  0.00    +0.000 A 
ATOM      8  C   UNL     1      31.931  17.740  71.117  0.00  0.00    +0.000 A 
BRANCH   6   9
ATOM      9  O   UNL     1      31.177  15.675  68.151  0.00  0.00    +0.000 OA
ATOM     10  C   UNL     1      31.151  14.365  68.699  0.00  0.00    +0.000 C 
ENDBRANCH   6   9
BRANCH   8  11
ATOM     11  O   UNL     1      32.285  17.551  72.479  0.00  0.00    +0.000 OA
ATOM     12  H   UNL     1      33.088  18.012  72.856  0.00  0.00    +0.000 HD
ENDBRANCH   8  11
ENDBRANCH   1   3
BRANCH   1  14
ATOM     13  C   UNL     1      30.958  22.374  71.510  0.00  0.00    +0.000 C 
ATOM     14  C   UNL     1      31.926  21.571  70.991  0.00  0.00    +0.000 C 
BRANCH  13  18
ATOM     15  C   UNL     1      30.654  26.323  69.913  0.00  0.00    +0.000 A 
ATOM     16  C   UNL     1      30.348  25.250  69.094  0.00  0.00    +0.000 A 
ATOM     17  C   UNL     1      30.267  24.013  69.776  0.00  0.00    +0.000 A 
ATOM     18  C   UNL     1      30.773  23.784  70.975  0.00  0.00    +0.000 A 
ATOM     19  C   UNL     1      31.120  24.884  71.708  0.00  0.00    +0.000 A 
ATOM     20  C   UNL     1      31.098  26.140  71.152  0.00  0.00    +0.000 A 
BRANCH  15  22
ATOM     21  C   UNL     1      31.807  28.318  69.051  0.00  0.00    +0.000 C 
ATOM     22  O   UNL     1      30.605  27.610  69.313  0.00  0.00    +0.000 OA
ENDBRANCH  15  22
ENDBRANCH  13  18
ENDBRANCH   1  14
TORSDOF 6
ENDMDL
MODEL 6
REMARK VINA RESULT:    -7.613      1.747      8.494
REMARK INTER + INTRA:         -10.797
REMARK INTER:                 -10.067
REMARK INTRA:                  -0.730
REMARK UNBOUND:                -0.737
REMARK  Name = 
REMARK  8 active torsions:
REMARK  status: ('A' for Active; 'I' for Inactive)
REMARK    1  A    between atoms: C_1  and  O_2
REMARK    2  A    between atoms: O_2  and  C_3
REMARK    3  A    between atoms: C_6  and  C_7
REMARK    4  A    between atoms: C_8  and  C_9
REMARK    5  A    between atoms: C_9  and  C_11
REMARK    6  A    between atoms: C_14  and  O_15
REMARK    7  A    between atoms: O_15  and  C_16
REMARK    8  A    between atoms: C_18  and  O_19
REMARK                            x       y       z     vdW  Elec       q    Type
REMARK                         _______ _______ _______ _____ _____    ______ ____
ROOT
ATOM      1  C   UNL     1      34.352  24.158  68.021  0.00  0.00    +0.000 C 
ATOM      2  O   UNL     1      35.059  23.957  66.985  0.00  0.00    +0.000 OA
ENDROOT
BRANCH   1   3
ATOM      3  C   UNL     1      33.406  23.076  68.517  0.00  0.00    +0.000 A 
ATOM      4  C   UNL     1      33.325  22.815  69.876  0.00  0.00    +0.000 A 
ATOM      5  C   UNL     1      32.646  21.614  70.188  0.00  0.00    +0.000 A 
ATOM      6  C   UNL     1      31.848  20.966  69.360  0.00  0.00    +0.000 A 
ATOM      7  C   UNL     1      31.928  21.317  68.041  0.00  0.00    +0.000 A 
ATOM      8  C   UNL     1      32.673  22.399  67.641  0.00  0.00    +0.000 A 
BRANCH   6   9
ATOM      9  O   UNL     1      30.956  19.960  69.814  0.00  0.00    +0.000 OA
ATOM     10  C   UNL     1      29.766  19.685  69.088  0.00  0.00    +0.000 C 
ENDBRANCH   6   9
BRANCH   8  11
ATOM     11  O   UNL     1      32.661  22.798  66.278  0.00  0.00    +0.000 OA
ATOM     12  H   UNL     1      31.801  23.055  65.838  0.00  0.00    +0.000 HD
ENDBRANCH   8  11
ENDBRANCH   1   3
BRANCH   1  14
ATOM     13  C   UNL     1      35.521  25.729  69.569  0.00  0.00    +0.000 C 
ATOM     14  C   UNL     1      34.451  25.480  68.765  0.00  0.00    +0.000 C 
BRANCH  13  18
ATOM     15  C   UNL     1      35.734  29.552  71.461  0.00  0.00    +0.000 A 
ATOM     16  C   UNL     1      34.509  28.910  71.396  0.00  0.00    +0.000 A 
ATOM     17  C   UNL     1      34.588  27.568  70.953  0.00  0.00    +0.000 A 
ATOM     18  C   UNL     1      35.621  27.050  70.313  0.00  0.00    +0.000 A 
ATOM     19  C   UNL     1      36.784  27.767  70.356  0.00  0.00    +0.000 A 
ATOM     20  C   UNL     1      36.816  29.031  70.892  0.00  0.00    +0.000 A 
BRANCH  15  22
ATOM     21  C   UNL     1      36.854  31.288  72.796  0.00  0.00    +0.000 C 
ATOM     22  O   UNL     1      35.736  30.850  72.038  0.00  0.00    +0.000 OA
ENDBRANCH  15  22
ENDBRANCH  13  18
ENDBRANCH   1  14
TORSDOF 6
ENDMDL
MODEL 7
REMARK VINA RESULT:    -7.609      2.497      8.277
REMARK INTER + INTRA:         -10.792
REMARK INTER:                 -10.010
REMARK INTRA:                  -0.782
REMARK UNBOUND:                -0.737
REMARK  Name = 
REMARK  8 active torsions:
REMARK  status: ('A' for Active; 'I' for Inactive)
REMARK    1  A    between atoms: C_1  and  O_2
REMARK    2  A    between atoms: O_2  and  C_3
REMARK    3  A    between atoms: C_6  and  C_7
REMARK    4  A    between atoms: C_8  and  C_9
REMARK    5  A    between atoms: C_9  and  C_11
REMARK    6  A    between atoms: C_14  and  O_15
REMARK    7  A    between atoms: O_15  and  C_16
REMARK    8  A    between atoms: C_18  and  O_19
REMARK                            x       y       z     vdW  Elec       q    Type
REMARK                         _______ _______ _______ _____ _____    ______ ____
ROOT
ATOM      1  C   UNL     1      32.962  22.727  67.372  0.00  0.00    +0.000 C 
ATOM      2  O   UNL     1      33.706  22.334  66.420  0.00  0.00    +0.000 OA
ENDROOT
BRANCH   1   3
ATOM      3  C   UNL     1      31.599  22.089  67.584  0.00  0.00    +0.000 A 
ATOM      4  C   UNL     1      30.457  22.799  67.251  0.00  0.00    +0.000 A 
ATOM      5  C   UNL     1      29.262  22.232  67.755  0.00  0.00    +0.000 A 
ATOM      6  C   UNL     1      29.145  20.988  68.183  0.00  0.00    +0.000 A 
ATOM      7  C   UNL     1      30.311  20.318  68.428  0.00  0.00    +0.000 A 
ATOM      8  C   UNL     1      31.525  20.860  68.083  0.00  0.00    +0.000 A 
BRANCH   6   9
ATOM      9  O   UNL     1      27.877  20.380  68.376  0.00  0.00    +0.000 OA
ATOM     10  C   UNL     1      26.896  21.022  69.178  0.00  0.00    +0.000 C 
ENDBRANCH   6   9
BRANCH   8  11
ATOM     11  O   UNL     1      32.712  20.102  68.264  0.00  0.00    +0.000 OA
ATOM     12  H   UNL     1      33.059  19.531  67.520  0.00  0.00    +0.000 HD
ENDBRANCH   8  11
ENDBRANCH   1   3
BRANCH   1  14
ATOM     13  C   UNL     1      33.295  25.137  67.930  0.00  0.00    +0.000 C 
ATOM     14  C   UNL     1      33.435  23.834  68.299  0.00  0.00    +0.000 C 
BRANCH  13  18
ATOM     15  C   UNL     1      34.492  28.153  70.706  0.00  0.00    +0.000 A 
ATOM     16  C   UNL     1      35.173  26.948  70.700  0.00  0.00    +0.000 A 
ATOM     17  C   UNL     1      34.847  26.111  69.607  0.00  0.00    +0.000 A 
ATOM     18  C   UNL     1      33.768  26.244  68.857  0.00  0.00    +0.000 A 
ATOM     19  C   UNL     1      33.100  27.433  68.959  0.00  0.00    +0.000 A 
ATOM     20  C   UNL     1      33.444  28.357  69.915  0.00  0.00    +0.000 A 
BRANCH  15  22
ATOM     21  C   UNL     1      36.249  29.468  71.818  0.00  0.00    +0.000 C 
ATOM     22  O   UNL     1      34.885  29.095  71.695  0.00  0.00    +0.000 OA
ENDBRANCH  15  22
ENDBRANCH  13  18
ENDBRANCH   1  14
TORSDOF 6
ENDMDL
MODEL 8
REMARK VINA RESULT:    -7.549      2.760      3.491
REMARK INTER + INTRA:         -10.713
REMARK INTER:                  -9.963
REMARK INTRA:                  -0.751
REMARK UNBOUND:                -0.737
REMARK  Name = 
REMARK  8 active torsions:
REMARK  status: ('A' for Active; 'I' for Inactive)
REMARK    1  A    between atoms: C_1  and  O_2
REMARK    2  A    between atoms: O_2  and  C_3
REMARK    3  A    between atoms: C_6  and  C_7
REMARK    4  A    between atoms: C_8  and  C_9
REMARK    5  A    between atoms: C_9  and  C_11
REMARK    6  A    between atoms: C_14  and  O_15
REMARK    7  A    between atoms: O_15  and  C_16
REMARK    8  A    between atoms: C_18  and  O_19
REMARK                            x       y       z     vdW  Elec       q    Type
REMARK                         _______ _______ _______ _____ _____    ______ ____
ROOT
ATOM      1  C   UNL     1      31.538  24.598  71.764  0.00  0.00    +0.000 C 
ATOM      2  O   UNL     1      31.239  24.686  72.996  0.00  0.00    +0.000 OA
ENDROOT
BRANCH   1   3
ATOM      3  C   UNL     1      31.567  25.848  70.899  0.00  0.00    +0.000 A 
ATOM      4  C   UNL     1      30.564  26.051  69.965  0.00  0.00    +0.000 A 
ATOM      5  C   UNL     1      30.849  27.078  69.034  0.00  0.00    +0.000 A 
ATOM      6  C   UNL     1      31.770  28.009  69.201  0.00  0.00    +0.000 A 
ATOM      7  C   UNL     1      32.692  27.780  70.186  0.00  0.00    +0.000 A 
ATOM      8  C   UNL     1      32.554  26.724  71.053  0.00  0.00    +0.000 A 
BRANCH   6   9
ATOM      9  O   UNL     1      31.801  29.183  68.405  0.00  0.00    +0.000 OA
ATOM     10  C   UNL     1      32.639  29.241  67.259  0.00  0.00    +0.000 C 
ENDBRANCH   6   9
BRANCH   8  11
ATOM     11  O   UNL     1      33.474  26.566  72.122  0.00  0.00    +0.000 OA
ATOM     12  H   UNL     1      33.429  27.174  72.915  0.00  0.00    +0.000 HD
ENDBRANCH   8  11
ENDBRANCH   1   3
BRANCH   1  14
ATOM     13  C   UNL     1      30.862  22.409  70.774  0.00  0.00    +0.000 C 
ATOM     14  C   UNL     1      31.866  23.245  71.156  0.00  0.00    +0.000 C 
BRANCH  13  18
ATOM     15  C   UNL     1      31.571  18.530  69.132  0.00  0.00    +0.000 A 
ATOM     16  C   UNL     1      30.885  19.460  68.369  0.00  0.00    +0.000 A 
ATOM     17  C   UNL     1      30.897  20.767  68.910  0.00  0.00    +0.000 A 
ATOM     18  C   UNL     1      31.190  21.056  70.165  0.00  0.00    +0.000 A 
ATOM     19  C   UNL     1      31.805  20.071  70.887  0.00  0.00    +0.000 A 
ATOM     20  C   UNL     1      31.949  18.804  70.376  0.00  0.00    +0.000 A 
BRANCH  15  22
ATOM     21  C   UNL     1      31.951  16.116  69.409  0.00  0.00    +0.000 C 
ATOM     22  O   UNL     1      31.719  17.235  68.567  0.00  0.00    +0.000 OA
ENDBRANCH  15  22
ENDBRANCH  13  18
ENDBRANCH   1  14
TORSDOF 6
ENDMDL
MODEL 9
REMARK VINA RESULT:    -7.395      2.897      3.014
REMARK INTER + INTRA:         -10.510
REMARK INTER:                  -9.773
REMARK INTRA:                  -0.737
REMARK UNBOUND:                -0.737
REMARK  Name = 
REMARK  8 active torsions:
REMARK  status: ('A' for Active; 'I' for Inactive)
REMARK    1  A    between atoms: C_1  and  O_2
REMARK    2  A    between atoms: O_2  and  C_3
REMARK    3  A    between atoms: C_6  and  C_7
REMARK    4  A    between atoms: C_8  and  C_9
REMARK    5  A    between atoms: C_9  and  C_11
REMARK    6  A    between atoms: C_14  and  O_15
REMARK    7  A    between atoms: O_15  and  C_16
REMARK    8  A    between atoms: C_18  and  O_19
REMARK                            x       y       z     vdW  Elec       q    Type
REMARK                         _______ _______ _______ _____ _____    ______ ____
ROOT
ATOM      1  C   UNL     1      34.203  24.863  68.294  0.00  0.00    +0.000 C 
ATOM      2  O   UNL     1      35.036  24.667  67.354  0.00  0.00    +0.000 OA
ENDROOT
BRANCH   1   3
ATOM      3  C   UNL     1      34.448  25.969  69.307  0.00  0.00    +0.000 A 
ATOM      4  C   UNL     1      33.405  26.810  69.661  0.00  0.00    +0.000 A 
ATOM      5  C   UNL     1      33.815  27.961  70.375  0.00  0.00    +0.000 A 
ATOM      6  C   UNL     1      34.981  28.093  70.979  0.00  0.00    +0.000 A 
ATOM      7  C   UNL     1      35.948  27.189  70.636  0.00  0.00    +0.000 A 
ATOM      8  C   UNL     1      35.657  26.110  69.838  0.00  0.00    +0.000 A 
BRANCH   6   9
ATOM      9  O   UNL     1      35.218  29.117  71.934  0.00  0.00    +0.000 OA
ATOM     10  C   UNL     1      36.383  29.923  71.836  0.00  0.00    +0.000 C 
ENDBRANCH   6   9
BRANCH   8  11
ATOM     11  O   UNL     1      36.658  25.138  69.576  0.00  0.00    +0.000 OA
ATOM     12  H   UNL     1      36.411  24.267  69.150  0.00  0.00    +0.000 HD
ENDBRANCH   8  11
ENDBRANCH   1   3
BRANCH   1  14
ATOM     13  C   UNL     1      32.000  24.055  67.442  0.00  0.00    +0.000 C 
ATOM     14  C   UNL     1      32.962  23.993  68.404  0.00  0.00    +0.000 C 
BRANCH  13  18
ATOM     15  C   UNL     1      28.607  21.510  67.944  0.00  0.00    +0.000 A 
ATOM     16  C   UNL     1      28.659  22.696  68.656  0.00  0.00    +0.000 A 
ATOM     17  C   UNL     1      29.706  23.560  68.256  0.00  0.00    +0.000 A 
ATOM     18  C   UNL     1      30.759  23.184  67.552  0.00  0.00    +0.000 A 
ATOM     19  C   UNL     1      30.672  21.971  66.928  0.00  0.00    +0.000 A 
ATOM     20  C   UNL     1      29.615  21.127  67.167  0.00  0.00    +0.000 A 
BRANCH  15  22
ATOM     21  C   UNL     1      26.729  20.842  69.385  0.00  0.00    +0.000 C 
ATOM     22  O   UNL     1      27.491  20.669  68.200  0.00  0.00    +0.000 OA
ENDBRANCH  15  22
ENDBRANCH  13  18
ENDBRANCH   1  14
TORSDOF 6
ENDMDL
