MODEL 1
REMARK VINA RESULT:    -7.449      0.000      0.000
REMARK INTER + INTRA:           8.428
REMARK INTER:                  -8.106
REMARK INTRA:                  16.534
REMARK UNBOUND:                16.531
REMARK  Name = 
REMARK  2 active torsions:
REMARK  status: ('A' for Active; 'I' for Inactive)
REMARK    1  A    between atoms: C_4  and  C_7
REMARK    2  A    between atoms: C_12  and  O_18
REMARK                            x       y       z     vdW  Elec       q    Type
REMARK                         _______ _______ _______ _____ _____    ______ ____
ROOT
ATOM      1  C   UNL     1      31.151  24.649  68.182  0.00  0.00    +0.000 A 
ATOM      2  C   UNL     1      32.083  24.083  67.242  0.00  0.00    +0.000 A 
ATOM      3  C   UNL     1      32.067  22.668  66.975  0.00  0.00    +0.000 A 
ATOM      4  O   UNL     1      32.890  22.170  66.144  0.00  0.00    +0.000 OA
ATOM      5  C   UNL     1      31.066  21.772  67.685  0.00  0.00    +0.000 A 
ATOM      6  C   UNL     1      31.493  20.568  68.221  0.00  0.00    +0.000 A 
ATOM      7  C   UNL     1      30.438  19.700  68.590  0.00  0.00    +0.000 A 
ATOM      8  C   UNL     1      29.186  20.076  68.770  0.00  0.00    +0.000 A 
ATOM      9  C   UNL     1      28.843  21.305  68.278  0.00  0.00    +0.000 A 
ATOM     10  C   UNL     1      29.799  22.158  67.781  0.00  0.00    +0.000 A 
ATOM     11  O   UNL     1      31.167  25.971  68.432  0.00  0.00    +0.000 OA
ENDROOT
BRANCH   1  15
ATOM     12  C   UNL     1      28.277  22.317  70.314  0.00  0.00    +0.000 A 
ATOM     13  C   UNL     1      27.850  23.080  69.240  0.00  0.00    +0.000 A 
ATOM     14  C   UNL     1      28.903  23.634  68.475  0.00  0.00    +0.000 A 
ATOM     15  C   UNL     1      30.150  23.753  68.893  0.00  0.00    +0.000 A 
ATOM     16  C   UNL     1      30.492  23.026  69.999  0.00  0.00    +0.000 A 
ATOM     17  C   UNL     1      29.540  22.351  70.724  0.00  0.00    +0.000 A 
ENDBRANCH   1  15
BRANCH   6  18
ATOM     18  O   UNL     1      32.864  20.235  68.384  0.00  0.00    +0.000 OA
ATOM     19  H   UNL     1      33.311  19.625  67.730  0.00  0.00    +0.000 HD
ENDBRANCH   6  18
TORSDOF 2
ENDMDL
MODEL 2
REMARK VINA RESULT:    -7.420      1.390      2.487
REMARK INTER + INTRA:           8.460
REMARK INTER:                  -8.066
REMARK INTRA:                  16.526
REMARK UNBOUND:                16.531
REMARK  Name = 
REMARK  2 active torsions:
REMARK  status: ('A' for Active; 'I' for Inactive)
REMARK    1  A    between atoms: C_4  and  C_7
REMARK    2  A    between atoms: C_12  and  O_18
REMARK                            x       y       z     vdW  Elec       q    Type
REMARK                         _______ _______ _______ _____ _____    ______ ____
ROOT
ATOM      1  C   UNL     1      30.626  24.237  70.449  0.00  0.00    +0.000 A 
ATOM      2  C   UNL     1      31.203  25.199  69.545  0.00  0.00    +0.000 A 
ATOM      3  C   UNL     1      31.385  24.863  68.157  0.00  0.00    +0.000 A 
ATOM      4  O   UNL     1      31.894  25.712  67.360  0.00  0.00    +0.000 OA
ATOM      5  C   UNL     1      30.970  23.493  67.645  0.00  0.00    +0.000 A 
ATOM      6  C   UNL     1      31.823  22.794  66.808  0.00  0.00    +0.000 A 
ATOM      7  C   UNL     1      31.218  21.685  66.170  0.00  0.00    +0.000 A 
ATOM      8  C   UNL     1      30.093  21.116  66.563  0.00  0.00    +0.000 A 
ATOM      9  C   UNL     1      29.327  21.829  67.443  0.00  0.00    +0.000 A 
ATOM     10  C   UNL     1      29.796  22.990  68.009  0.00  0.00    +0.000 A 
ATOM     11  O   UNL     1      30.456  24.551  71.746  0.00  0.00    +0.000 OA
ENDROOT
BRANCH   1  15
ATOM     12  C   UNL     1      29.422  20.323  69.236  0.00  0.00    +0.000 A 
ATOM     13  C   UNL     1      28.446  21.282  69.452  0.00  0.00    +0.000 A 
ATOM     14  C   UNL     1      28.957  22.589  69.633  0.00  0.00    +0.000 A 
ATOM     15  C   UNL     1      30.211  22.867  69.937  0.00  0.00    +0.000 A 
ATOM     16  C   UNL     1      31.117  21.857  69.767  0.00  0.00    +0.000 A 
ATOM     17  C   UNL     1      30.704  20.583  69.461  0.00  0.00    +0.000 A 
ENDBRANCH   1  15
BRANCH   6  18
ATOM     18  O   UNL     1      33.182  23.156  66.607  0.00  0.00    +0.000 OA
ATOM     19  H   UNL     1      33.597  23.054  65.703  0.00  0.00    +0.000 HD
ENDBRANCH   6  18
TORSDOF 2
ENDMDL
MODEL 3
REMARK VINA RESULT:    -7.348      3.163      6.107
REMARK INTER + INTRA:           8.538
REMARK INTER:                  -7.987
REMARK INTRA:                  16.525
REMARK UNBOUND:                16.531
REMARK  Name = 
REMARK  2 active torsions:
REMARK  status: ('A' for Active; 'I' for Inactive)
REMARK    1  A    between atoms: C_4  and  C_7
REMARK    2  A    between atoms: C_12  and  O_18
REMARK                            x       y       z     vdW  Elec       q    Type
REMARK                         _______ _______ _______ _____ _____    ______ ____
ROOT
ATOM      1  C   UNL     1      30.475  24.435  69.185  0.00  0.00    +0.000 A 
ATOM      2  C   UNL     1      30.413  24.592  70.615  0.00  0.00    +0.000 A 
ATOM      3  C   UNL     1      31.042  25.725  71.243  0.00  0.00    +0.000 A 
ATOM      4  O   UNL     1      30.987  25.863  72.505  0.00  0.00    +0.000 OA
ATOM      5  C   UNL     1      31.772  26.755  70.397  0.00  0.00    +0.000 A 
ATOM      6  C   UNL     1      33.015  27.211  70.803  0.00  0.00    +0.000 A 
ATOM      7  C   UNL     1      33.457  28.363  70.109  0.00  0.00    +0.000 A 
ATOM      8  C   UNL     1      32.964  28.780  68.958  0.00  0.00    +0.000 A 
ATOM      9  C   UNL     1      31.765  28.242  68.580  0.00  0.00    +0.000 A 
ATOM     10  C   UNL     1      31.205  27.202  69.282  0.00  0.00    +0.000 A 
ATOM     11  O   UNL     1      29.888  23.376  68.598  0.00  0.00    +0.000 OA
ENDROOT
BRANCH   1  15
ATOM     12  C   UNL     1      32.493  27.189  66.618  0.00  0.00    +0.000 A 
ATOM     13  C   UNL     1      31.110  27.239  66.691  0.00  0.00    +0.000 A 
ATOM     14  C   UNL     1      30.562  26.442  67.724  0.00  0.00    +0.000 A 
ATOM     15  C   UNL     1      31.204  25.466  68.338  0.00  0.00    +0.000 A 
ATOM     16  C   UNL     1      32.561  25.431  68.172  0.00  0.00    +0.000 A 
ATOM     17  C   UNL     1      33.185  26.267  67.277  0.00  0.00    +0.000 A 
ENDBRANCH   1  15
BRANCH   6  18
ATOM     18  O   UNL     1      33.776  26.581  71.823  0.00  0.00    +0.000 OA
ATOM     19  H   UNL     1      33.933  27.051  72.691  0.00  0.00    +0.000 HD
ENDBRANCH   6  18
TORSDOF 2
ENDMDL
MODEL 4
REMARK VINA RESULT:    -7.337      2.924      5.549
REMARK INTER + INTRA:           8.551
REMARK INTER:                  -7.997
REMARK INTRA:                  16.548
REMARK UNBOUND:                16.531
REMARK  Name = 
REMARK  2 active torsions:
REMARK  status: ('A' for Active; 'I' for Inactive)
REMARK    1  A    between atoms: C_4  and  C_7
REMARK    2  A    between atoms: C_12  and  O_18
REMARK                            x       y       z     vdW  Elec       q    Type
REMARK                         _______ _______ _______ _____ _____    ______ ____
ROOT
ATOM      1  C   UNL     1      32.270  24.155  67.692  0.00  0.00    +0.000 A 
ATOM      2  C   UNL     1      31.154  23.463  68.282  0.00  0.00    +0.000 A 
ATOM      3  C   UNL     1      30.365  24.105  69.302  0.00  0.00    +0.000 A 
ATOM      4  O   UNL     1      29.380  23.494  69.821  0.00  0.00    +0.000 OA
ATOM      5  C   UNL     1      30.712  25.514  69.756  0.00  0.00    +0.000 A 
ATOM      6  C   UNL     1      30.730  25.805  71.109  0.00  0.00    +0.000 A 
ATOM      7  C   UNL     1      30.774  27.191  71.396  0.00  0.00    +0.000 A 
ATOM      8  C   UNL     1      31.127  28.124  70.532  0.00  0.00    +0.000 A 
ATOM      9  C   UNL     1      31.155  27.755  69.216  0.00  0.00    +0.000 A 
ATOM     10  C   UNL     1      30.991  26.441  68.847  0.00  0.00    +0.000 A 
ATOM     11  O   UNL     1      33.007  23.555  66.740  0.00  0.00    +0.000 OA
ENDROOT
BRANCH   1  15
ATOM     12  C   UNL     1      33.443  28.099  68.840  0.00  0.00    +0.000 A 
ATOM     13  C   UNL     1      32.772  27.927  67.640  0.00  0.00    +0.000 A 
ATOM     14  C   UNL     1      32.240  26.628  67.462  0.00  0.00    +0.000 A 
ATOM     15  C   UNL     1      32.617  25.564  68.146  0.00  0.00    +0.000 A 
ATOM     16  C   UNL     1      33.336  25.797  69.286  0.00  0.00    +0.000 A 
ATOM     17  C   UNL     1      33.779  27.060  69.596  0.00  0.00    +0.000 A 
ENDBRANCH   1  15
BRANCH   6  18
ATOM     18  O   UNL     1      30.707  24.806  72.118  0.00  0.00    +0.000 OA
ATOM     19  H   UNL     1      31.023  25.022  73.042  0.00  0.00    +0.000 HD
ENDBRANCH   6  18
TORSDOF 2
ENDMDL
MODEL 5
REMARK VINA RESULT:    -7.281      1.261      3.606
REMARK INTER + INTRA:           8.612
REMARK INTER:                  -7.929
REMARK INTRA:                  16.540
REMARK UNBOUND:                16.531
REMARK  Name = 
REMARK  2 active torsions:
REMARK  status: ('A' for Active; 'I' for Inactive)
REMARK    1  A    between atoms: C_4  and  C_7
REMARK    2  A    between atoms: C_12  and  O_18
REMARK                            x       y       z     vdW  Elec       q    Type
REMARK                         _______ _______ _______ _____ _____    ______ ____
ROOT
ATOM      1  C   UNL     1      30.380  19.676  69.104  0.00  0.00    +0.000 A 
ATOM      2  C   UNL     1      31.785  19.714  68.791  0.00  0.00    +0.000 A 
ATOM      3  C   UNL     1      32.419  20.967  68.473  0.00  0.00    +0.000 A 
ATOM      4  O   UNL     1      33.659  21.000  68.197  0.00  0.00    +0.000 OA
ATOM      5  C   UNL     1      31.604  22.251  68.467  0.00  0.00    +0.000 A 
ATOM      6  C   UNL     1      31.757  23.147  67.424  0.00  0.00    +0.000 A 
ATOM      7  C   UNL     1      31.181  24.417  67.670  0.00  0.00    +0.000 A 
ATOM      8  C   UNL     1      30.279  24.662  68.602  0.00  0.00    +0.000 A 
ATOM      9  C   UNL     1      30.128  23.706  69.568  0.00  0.00    +0.000 A 
ATOM     10  C   UNL     1      30.760  22.491  69.464  0.00  0.00    +0.000 A 
ATOM     11  O   UNL     1      29.788  18.505  69.401  0.00  0.00    +0.000 OA
ENDROOT
BRANCH   1  15
ATOM     12  C   UNL     1      27.896  23.151  69.116  0.00  0.00    +0.000 A 
ATOM     13  C   UNL     1      28.300  22.618  70.329  0.00  0.00    +0.000 A 
ATOM     14  C   UNL     1      29.288  21.612  70.213  0.00  0.00    +0.000 A 
ATOM     15  C   UNL     1      29.566  20.960  69.099  0.00  0.00    +0.000 A 
ATOM     16  C   UNL     1      29.081  21.500  67.941  0.00  0.00    +0.000 A 
ATOM     17  C   UNL     1      28.214  22.566  67.967  0.00  0.00    +0.000 A 
ENDBRANCH   1  15
BRANCH   6  18
ATOM     18  O   UNL     1      32.431  22.824  66.216  0.00  0.00    +0.000 OA
ATOM     19  H   UNL     1      33.310  23.252  66.005  0.00  0.00    +0.000 HD
ENDBRANCH   6  18
TORSDOF 2
ENDMDL
MODEL 6
REMARK VINA RESULT:    -7.147      2.343      4.702
REMARK INTER + INTRA:           8.756
REMARK INTER:                  -7.774
REMARK INTRA:                  16.531
REMARK UNBOUND:                16.531
REMARK  Name = 
REMARK  2 active torsions:
REMARK  status: ('A' for Active; 'I' for Inactive)
REMARK    1  A    between atoms: C_4  and  C_7
REMARK    2  A    between atoms: C_12  and  O_18
REMARK                            x       y       z     vdW  Elec       q    Type
REMARK                         _______ _______ _______ _____ _____    ______ ____
ROOT
ATOM      1  C   UNL     1      31.317  19.200  69.249  0.00  0.00    +0.000 A 
ATOM      2  C   UNL     1      29.882  19.143  69.138  0.00  0.00    +0.000 A 
ATOM      3  C   UNL     1      29.112  20.360  69.127  0.00  0.00    +0.000 A 
ATOM      4  O   UNL     1      27.846  20.309  69.028  0.00  0.00    +0.000 OA
ATOM      5  C   UNL     1      29.813  21.704  69.232  0.00  0.00    +0.000 A 
ATOM      6  C   UNL     1      29.308  22.669  70.087  0.00  0.00    +0.000 A 
ATOM      7  C   UNL     1      29.857  23.958  69.886  0.00  0.00    +0.000 A 
ATOM      8  C   UNL     1      30.978  24.201  69.233  0.00  0.00    +0.000 A 
ATOM      9  C   UNL     1      31.463  23.184  68.457  0.00  0.00    +0.000 A 
ATOM     10  C   UNL     1      30.899  21.932  68.501  0.00  0.00    +0.000 A 
ATOM     11  O   UNL     1      32.036  18.063  69.260  0.00  0.00    +0.000 OA
ENDROOT
BRANCH   1  15
ATOM     12  C   UNL     1      33.490  22.862  69.586  0.00  0.00    +0.000 A 
ATOM     13  C   UNL     1      33.481  22.204  68.367  0.00  0.00    +0.000 A 
ATOM     14  C   UNL     1      32.562  21.130  68.302  0.00  0.00    +0.000 A 
ATOM     15  C   UNL     1      32.018  20.545  69.354  0.00  0.00    +0.000 A 
ATOM     16  C   UNL     1      32.120  21.213  70.542  0.00  0.00    +0.000 A 
ATOM     17  C   UNL     1      32.894  22.343  70.653  0.00  0.00    +0.000 A 
ENDBRANCH   1  15
BRANCH   6  18
ATOM     18  O   UNL     1      28.328  22.391  71.076  0.00  0.00    +0.000 OA
ATOM     19  H   UNL     1      27.424  22.058  70.804  0.00  0.00    +0.000 HD
ENDBRANCH   6  18
TORSDOF 2
ENDMDL
