MODEL 1
REMARK VINA RESULT:    -7.667      0.000      0.000
REMARK INTER + INTRA:           7.518
REMARK INTER:                  -8.928
REMARK INTRA:                  16.446
REMARK UNBOUND:                16.530
REMARK  Name = 
REMARK  5 active torsions:
REMARK  status: ('A' for Active; 'I' for Inactive)
REMARK    1  A    between atoms: C_1  and  O_2
REMARK    2  A    between atoms: O_2  and  C_3
REMARK    3  A    between atoms: C_6  and  C_7
REMARK    4  A    between atoms: C_19  and  O_20
REMARK    5  A    between atoms: O_20  and  C_21
REMARK                            x       y       z     vdW  Elec       q    Type
REMARK                         _______ _______ _______ _____ _____    ______ ____
ROOT
ATOM      1  C   UNL     1      29.167  23.146  69.451  0.00  0.00    +0.000 A 
ATOM      2  C   UNL     1      29.392  22.657  70.787  0.00  0.00    +0.000 A 
ATOM      3  C   UNL     1      30.660  22.875  71.430  0.00  0.00    +0.000 A 
ATOM      4  O   UNL     1      30.858  22.443  72.610  0.00  0.00    +0.000 OA
ATOM      5  C   UNL     1      31.764  23.623  70.700  0.00  0.00    +0.000 A 
ATOM      6  C   UNL     1      33.020  23.041  70.744  0.00  0.00    +0.000 A 
ATOM      7  C   UNL     1      34.058  23.879  70.273  0.00  0.00    +0.000 A 
ATOM      8  C   UNL     1      33.872  24.955  69.530  0.00  0.00    +0.000 A 
ATOM      9  C   UNL     1      32.596  25.442  69.472  0.00  0.00    +0.000 A 
ATOM     10  C   UNL     1      31.548  24.744  70.022  0.00  0.00    +0.000 A 
ATOM     11  O   UNL     1      27.981  22.942  68.849  0.00  0.00    +0.000 OA
ENDROOT
BRANCH   1  15
ATOM     12  C   UNL     1      32.133  25.243  67.204  0.00  0.00    +0.000 A 
ATOM     13  C   UNL     1      31.101  25.965  67.780  0.00  0.00    +0.000 A 
ATOM     14  C   UNL     1      30.305  25.214  68.676  0.00  0.00    +0.000 A 
ATOM     15  C   UNL     1      30.271  23.894  68.721  0.00  0.00    +0.000 A 
ATOM     16  C   UNL     1      31.280  23.237  68.074  0.00  0.00    +0.000 A 
ATOM     17  C   UNL     1      32.176  23.919  67.285  0.00  0.00    +0.000 A 
BRANCH  12  19
ATOM     18  C   UNL     1      32.974  27.281  66.115  0.00  0.00    +0.000 C 
ATOM     19  O   UNL     1      33.189  25.957  66.580  0.00  0.00    +0.000 OA
ENDBRANCH  12  19
BRANCH  17  20
ATOM     20  O   UNL     1      33.155  23.200  66.551  0.00  0.00    +0.000 OA
ATOM     21  C   UNL     1      33.740  22.030  67.104  0.00  0.00    +0.000 C 
ENDBRANCH  17  20
ENDBRANCH   1  15
TORSDOF 3
ENDMDL
MODEL 2
REMARK VINA RESULT:    -7.559      1.566      4.720
REMARK INTER + INTRA:           7.645
REMARK INTER:                  -8.793
REMARK INTRA:                  16.437
REMARK UNBOUND:                16.530
REMARK  Name = 
REMARK  5 active torsions:
REMARK  status: ('A' for Active; 'I' for Inactive)
REMARK    1  A    between atoms: C_1  and  O_2
REMARK    2  A    between atoms: O_2  and  C_3
REMARK    3  A    between atoms: C_6  and  C_7
REMARK    4  A    between atoms: C_19  and  O_20
REMARK    5  A    between atoms: O_20  and  C_21
REMARK                            x       y       z     vdW  Elec       q    Type
REMARK                         _______ _______ _______ _____ _____    ______ ____
ROOT
ATOM      1  C   UNL     1      31.743  26.272  67.602  0.00  0.00    +0.000 A 
ATOM      2  C   UNL     1      33.099  25.997  67.199  0.00  0.00    +0.000 A 
ATOM      3  C   UNL     1      33.769  24.819  67.682  0.00  0.00    +0.000 A 
ATOM      4  O   UNL     1      34.966  24.577  67.327  0.00  0.00    +0.000 OA
ATOM      5  C   UNL     1      33.048  23.863  68.619  0.00  0.00    +0.000 A 
ATOM      6  C   UNL     1      33.759  23.458  69.736  0.00  0.00    +0.000 A 
ATOM      7  C   UNL     1      33.158  22.390  70.443  0.00  0.00    +0.000 A 
ATOM      8  C   UNL     1      31.894  22.025  70.316  0.00  0.00    +0.000 A 
ATOM      9  C   UNL     1      31.226  22.514  69.229  0.00  0.00    +0.000 A 
ATOM     10  C   UNL     1      31.797  23.464  68.416  0.00  0.00    +0.000 A 
ATOM     11  O   UNL     1      31.117  27.373  67.151  0.00  0.00    +0.000 OA
ENDROOT
BRANCH   1  15
ATOM     12  C   UNL     1      29.538  23.745  70.246  0.00  0.00    +0.000 A 
ATOM     13  C   UNL     1      29.254  23.699  68.891  0.00  0.00    +0.000 A 
ATOM     14  C   UNL     1      30.180  24.403  68.087  0.00  0.00    +0.000 A 
ATOM     15  C   UNL     1      31.022  25.316  68.539  0.00  0.00    +0.000 A 
ATOM     16  C   UNL     1      31.206  25.356  69.892  0.00  0.00    +0.000 A 
ATOM     17  C   UNL     1      30.428  24.599  70.735  0.00  0.00    +0.000 A 
BRANCH  12  19
ATOM     18  C   UNL     1      27.725  22.137  70.671  0.00  0.00    +0.000 C 
ATOM     19  O   UNL     1      28.902  22.805  71.100  0.00  0.00    +0.000 OA
ENDBRANCH  12  19
BRANCH  17  20
ATOM     20  O   UNL     1      30.579  24.731  72.140  0.00  0.00    +0.000 OA
ATOM     21  C   UNL     1      31.853  25.033  72.692  0.00  0.00    +0.000 C 
ENDBRANCH  17  20
ENDBRANCH   1  15
TORSDOF 3
ENDMDL
MODEL 3
REMARK VINA RESULT:    -7.441      2.076      3.575
REMARK INTER + INTRA:           7.784
REMARK INTER:                  -8.674
REMARK INTRA:                  16.458
REMARK UNBOUND:                16.530
REMARK  Name = 
REMARK  5 active torsions:
REMARK  status: ('A' for Active; 'I' for Inactive)
REMARK    1  A    between atoms: C_1  and  O_2
REMARK    2  A    between atoms: O_2  and  C_3
REMARK    3  A    between atoms: C_6  and  C_7
REMARK    4  A    between atoms: C_19  and  O_20
REMARK    5  A    between atoms: O_20  and  C_21
REMARK                            x       y       z     vdW  Elec       q    Type
REMARK                         _______ _______ _______ _____ _____    ______ ____
ROOT
ATOM      1  C   UNL     1      32.117  23.833  67.566  0.00  0.00    +0.000 A 
ATOM      2  C   UNL     1      31.395  23.014  68.507  0.00  0.00    +0.000 A 
ATOM      3  C   UNL     1      30.745  23.619  69.638  0.00  0.00    +0.000 A 
ATOM      4  O   UNL     1      30.108  22.896  70.468  0.00  0.00    +0.000 OA
ATOM      5  C   UNL     1      30.817  25.124  69.842  0.00  0.00    +0.000 A 
ATOM      6  C   UNL     1      31.139  25.546  71.122  0.00  0.00    +0.000 A 
ATOM      7  C   UNL     1      30.955  26.933  71.331  0.00  0.00    +0.000 A 
ATOM      8  C   UNL     1      30.845  27.828  70.366  0.00  0.00    +0.000 A 
ATOM      9  C   UNL     1      30.595  27.344  69.112  0.00  0.00    +0.000 A 
ATOM     10  C   UNL     1      30.629  25.994  68.857  0.00  0.00    +0.000 A 
ATOM     11  O   UNL     1      32.725  23.267  66.508  0.00  0.00    +0.000 OA
ENDROOT
BRANCH   1  15
ATOM     12  C   UNL     1      32.473  28.071  67.956  0.00  0.00    +0.000 A 
ATOM     13  C   UNL     1      31.569  27.561  67.039  0.00  0.00    +0.000 A 
ATOM     14  C   UNL     1      31.371  26.164  67.144  0.00  0.00    +0.000 A 
ATOM     15  C   UNL     1      32.189  25.337  67.770  0.00  0.00    +0.000 A 
ATOM     16  C   UNL     1      33.105  25.908  68.609  0.00  0.00    +0.000 A 
ATOM     17  C   UNL     1      33.266  27.272  68.659  0.00  0.00    +0.000 A 
BRANCH  12  19
ATOM     18  C   UNL     1      32.975  30.349  67.176  0.00  0.00    +0.000 C 
ATOM     19  O   UNL     1      32.487  29.473  68.181  0.00  0.00    +0.000 OA
ENDBRANCH  12  19
BRANCH  17  20
ATOM     20  O   UNL     1      34.289  27.830  69.469  0.00  0.00    +0.000 OA
ATOM     21  C   UNL     1      34.661  27.192  70.682  0.00  0.00    +0.000 C 
ENDBRANCH  17  20
ENDBRANCH   1  15
TORSDOF 3
ENDMDL
MODEL 4
REMARK VINA RESULT:    -7.402      2.085      4.871
REMARK INTER + INTRA:           7.830
REMARK INTER:                  -8.623
REMARK INTRA:                  16.453
REMARK UNBOUND:                16.530
REMARK  Name = 
REMARK  5 active torsions:
REMARK  status: ('A' for Active; 'I' for Inactive)
REMARK    1  A    between atoms: C_1  and  O_2
REMARK    2  A    between atoms: O_2  and  C_3
REMARK    3  A    between atoms: C_6  and  C_7
REMARK    4  A    between atoms: C_19  and  O_20
REMARK    5  A    between atoms: O_20  and  C_21
REMARK                            x       y       z     vdW  Elec       q    Type
REMARK                         _______ _______ _______ _____ _____    ______ ____
ROOT
ATOM      1  C   UNL     1      30.933  24.630  70.845  0.00  0.00    +0.000 A 
ATOM      2  C   UNL     1      31.766  25.457  70.009  0.00  0.00    +0.000 A 
ATOM      3  C   UNL     1      31.911  25.153  68.610  0.00  0.00    +0.000 A 
ATOM      4  O   UNL     1      32.647  25.883  67.874  0.00  0.00    +0.000 OA
ATOM      5  C   UNL     1      31.184  23.959  68.012  0.00  0.00    +0.000 A 
ATOM      6  C   UNL     1      31.945  23.131  67.202  0.00  0.00    +0.000 A 
ATOM      7  C   UNL     1      31.185  22.187  66.473  0.00  0.00    +0.000 A 
ATOM      8  C   UNL     1      29.943  21.841  66.762  0.00  0.00    +0.000 A 
ATOM      9  C   UNL     1      29.268  22.662  67.622  0.00  0.00    +0.000 A 
ATOM     10  C   UNL     1      29.911  23.687  68.272  0.00  0.00    +0.000 A 
ATOM     11  O   UNL     1      30.798  24.913  72.152  0.00  0.00    +0.000 OA
ENDROOT
BRANCH   1  15
ATOM     12  C   UNL     1      28.821  21.217  69.383  0.00  0.00    +0.000 A 
ATOM     13  C   UNL     1      28.121  22.394  69.590  0.00  0.00    +0.000 A 
ATOM     14  C   UNL     1      28.945  23.511  69.861  0.00  0.00    +0.000 A 
ATOM     15  C   UNL     1      30.206  23.436  70.246  0.00  0.00    +0.000 A 
ATOM     16  C   UNL     1      30.822  22.227  70.079  0.00  0.00    +0.000 A 
ATOM     17  C   UNL     1      30.109  21.118  69.690  0.00  0.00    +0.000 A 
BRANCH  12  19
ATOM     18  C   UNL     1      26.788  19.866  69.084  0.00  0.00    +0.000 C 
ATOM     19  O   UNL     1      28.146  20.130  68.767  0.00  0.00    +0.000 OA
ENDBRANCH  12  19
BRANCH  17  20
ATOM     20  O   UNL     1      30.755  19.857  69.617  0.00  0.00    +0.000 OA
ATOM     21  C   UNL     1      32.060  19.759  69.064  0.00  0.00    +0.000 C 
ENDBRANCH  17  20
ENDBRANCH   1  15
TORSDOF 3
ENDMDL
MODEL 5
REMARK VINA RESULT:    -7.307      1.764      3.274
REMARK INTER + INTRA:           7.941
REMARK INTER:                  -8.655
REMARK INTRA:                  16.597
REMARK UNBOUND:                16.530
REMARK  Name = 
REMARK  5 active torsions:
REMARK  status: ('A' for Active; 'I' for Inactive)
REMARK    1  A    between atoms: C_1  and  O_2
REMARK    2  A    between atoms: O_2  and  C_3
REMARK    3  A    between atoms: C_6  and  C_7
REMARK    4  A    between atoms: C_19  and  O_20
REMARK    5  A    between atoms: O_20  and  C_21
REMARK                            x       y       z     vdW  Elec       q    Type
REMARK                         _______ _______ _______ _____ _____    ______ ____
ROOT
ATOM      1  C   UNL     1      31.666  26.528  70.032  0.00  0.00    +0.000 A 
ATOM      2  C   UNL     1      31.367  26.298  71.422  0.00  0.00    +0.000 A 
ATOM      3  C   UNL     1      31.461  24.971  71.969  0.00  0.00    +0.000 A 
ATOM      4  O   UNL     1      31.197  24.768  73.196  0.00  0.00    +0.000 OA
ATOM      5  C   UNL     1      31.876  23.809  71.081  0.00  0.00    +0.000 A 
ATOM      6  C   UNL     1      31.098  22.667  71.174  0.00  0.00    +0.000 A 
ATOM      7  C   UNL     1      31.655  21.539  70.528  0.00  0.00    +0.000 A 
ATOM      8  C   UNL     1      32.613  21.593  69.620  0.00  0.00    +0.000 A 
ATOM      9  C   UNL     1      33.300  22.772  69.529  0.00  0.00    +0.000 A 
ATOM     10  C   UNL     1      32.894  23.881  70.230  0.00  0.00    +0.000 A 
ATOM     11  O   UNL     1      31.578  27.769  69.520  0.00  0.00    +0.000 OA
ENDROOT
BRANCH   1  15
ATOM     12  C   UNL     1      32.825  23.414  67.348  0.00  0.00    +0.000 A 
ATOM     13  C   UNL     1      33.802  24.260  67.847  0.00  0.00    +0.000 A 
ATOM     14  C   UNL     1      33.351  25.107  68.886  0.00  0.00    +0.000 A 
ATOM     15  C   UNL     1      32.081  25.367  69.143  0.00  0.00    +0.000 A 
ATOM     16  C   UNL     1      31.162  24.537  68.565  0.00  0.00    +0.000 A 
ATOM     17  C   UNL     1      31.543  23.596  67.638  0.00  0.00    +0.000 A 
BRANCH  12  19
ATOM     18  C   UNL     1      34.603  21.929  66.522  0.00  0.00    +0.000 C 
ATOM     19  O   UNL     1      33.233  22.298  66.571  0.00  0.00    +0.000 OA
ENDBRANCH  12  19
BRANCH  17  20
ATOM     20  O   UNL     1      30.556  22.812  66.986  0.00  0.00    +0.000 OA
ATOM     21  C   UNL     1      29.380  22.427  67.683  0.00  0.00    +0.000 C 
ENDBRANCH  17  20
ENDBRANCH   1  15
TORSDOF 3
ENDMDL
MODEL 6
REMARK VINA RESULT:    -7.236      1.874      4.268
REMARK INTER + INTRA:           8.025
REMARK INTER:                  -8.505
REMARK INTRA:                  16.530
REMARK UNBOUND:                16.530
REMARK  Name = 
REMARK  5 active torsions:
REMARK  status: ('A' for Active; 'I' for Inactive)
REMARK    1  A    between atoms: C_1  and  O_2
REMARK    2  A    between atoms: O_2  and  C_3
REMARK    3  A    between atoms: C_6  and  C_7
REMARK    4  A    between atoms: C_19  and  O_20
REMARK    5  A    between atoms: O_20  and  C_21
REMARK                            x       y       z     vdW  Elec       q    Type
REMARK                         _______ _______ _______ _____ _____    ______ ____
ROOT
ATOM      1  C   UNL     1      31.060  21.797  68.138  0.00  0.00    +0.000 A 
ATOM      2  C   UNL     1      32.122  21.689  67.170  0.00  0.00    +0.000 A 
ATOM      3  C   UNL     1      33.292  22.517  67.289  0.00  0.00    +0.000 A 
ATOM      4  O   UNL     1      34.229  22.421  66.435  0.00  0.00    +0.000 OA
ATOM      5  C   UNL     1      33.409  23.508  68.436  0.00  0.00    +0.000 A 
ATOM      6  C   UNL     1      33.815  24.787  68.092  0.00  0.00    +0.000 A 
ATOM      7  C   UNL     1      34.149  25.601  69.200  0.00  0.00    +0.000 A 
ATOM      8  C   UNL     1      33.789  25.353  70.446  0.00  0.00    +0.000 A 
ATOM      9  C   UNL     1      33.331  24.092  70.708  0.00  0.00    +0.000 A 
ATOM     10  C   UNL     1      33.105  23.197  69.691  0.00  0.00    +0.000 A 
ATOM     11  O   UNL     1      29.966  21.023  68.027  0.00  0.00    +0.000 OA
ENDROOT
BRANCH   1  15
ATOM     12  C   UNL     1      31.164  24.529  71.420  0.00  0.00    +0.000 A 
ATOM     13  C   UNL     1      31.429  23.191  71.660  0.00  0.00    +0.000 A 
ATOM     14  C   UNL     1      31.585  22.418  70.485  0.00  0.00    +0.000 A 
ATOM     15  C   UNL     1      31.177  22.789  69.285  0.00  0.00    +0.000 A 
ATOM     16  C   UNL     1      30.864  24.110  69.130  0.00  0.00    +0.000 A 
ATOM     17  C   UNL     1      30.819  24.957  70.212  0.00  0.00    +0.000 A 
BRANCH  12  19
ATOM     18  C   UNL     1      31.885  25.017  73.720  0.00  0.00    +0.000 C 
ATOM     19  O   UNL     1      31.337  25.452  72.484  0.00  0.00    +0.000 OA
ENDBRANCH  12  19
BRANCH  17  20
ATOM     20  O   UNL     1      30.399  26.301  70.034  0.00  0.00    +0.000 OA
ATOM     21  C   UNL     1      30.719  26.993  68.836  0.00  0.00    +0.000 C 
ENDBRANCH  17  20
ENDBRANCH   1  15
TORSDOF 3
ENDMDL
