MODEL 1
REMARK VINA RESULT:    -7.609      0.000      0.000
REMARK INTER + INTRA:         -11.538
REMARK INTER:                 -10.781
REMARK INTRA:                  -0.757
REMARK UNBOUND:                -0.815
REMARK  Name = 
REMARK  11 active torsions:
REMARK  status: ('A' for Active; 'I' for Inactive)
REMARK    1  A    between atoms: C_1  and  O_2
REMARK    2  A    between atoms: O_2  and  C_3
REMARK    3  A    between atoms: C_6  and  C_7
REMARK    4  A    between atoms: C_8  and  C_9
REMARK    5  A    between atoms: C_9  and  C_11
REMARK    6  A    between atoms: C_13  and  O_14
REMARK    7  A    between atoms: O_14  and  C_15
REMARK    8  A    between atoms: C_16  and  O_17
REMARK    9  A    between atoms: O_17  and  C_18
REMARK   10  A    between atoms: C_19  and  O_20
REMARK   11  A    between atoms: O_20  and  C_21
REMARK                            x       y       z     vdW  Elec       q    Type
REMARK                         _______ _______ _______ _____ _____    ______ ____
ROOT
ATOM      1  C   UNL     1      31.572  22.897  71.883  0.00  0.00    +0.000 C 
ATOM      2  O   UNL     1      31.029  22.903  73.032  0.00  0.00    +0.000 OA
ENDROOT
BRANCH   1   3
ATOM      3  C   UNL     1      32.331  24.121  71.395  0.00  0.00    +0.000 A 
ATOM      4  C   UNL     1      31.968  25.377  71.851  0.00  0.00    +0.000 A 
ATOM      5  C   UNL     1      32.546  26.442  71.119  0.00  0.00    +0.000 A 
ATOM      6  C   UNL     1      33.595  26.323  70.326  0.00  0.00    +0.000 A 
ATOM      7  C   UNL     1      33.945  25.051  69.966  0.00  0.00    +0.000 A 
ATOM      8  C   UNL     1      33.335  23.962  70.541  0.00  0.00    +0.000 A 
BRANCH   5   9
ATOM      9  O   UNL     1      31.955  27.727  71.246  0.00  0.00    +0.000 OA
ATOM     10  C   UNL     1      30.692  27.990  70.653  0.00  0.00    +0.000 C 
ENDBRANCH   5   9
BRANCH   6  11
ATOM     11  O   UNL     1      34.321  27.455  69.872  0.00  0.00    +0.000 OA
ATOM     12  C   UNL     1      35.473  27.891  70.580  0.00  0.00    +0.000 C 
ENDBRANCH   6  11
BRANCH   7  13
ATOM     13  O   UNL     1      34.951  24.854  68.984  0.00  0.00    +0.000 OA
ATOM     14  C   UNL     1      34.596  24.404  67.684  0.00  0.00    +0.000 C 
ENDBRANCH   7  13
ENDBRANCH   1   3
BRANCH   1  16
ATOM     15  C   UNL     1      31.993  20.485  71.406  0.00  0.00    +0.000 C 
ATOM     16  C   UNL     1      31.462  21.668  70.997  0.00  0.00    +0.000 C 
BRANCH  15  20
ATOM     17  C   UNL     1      31.450  17.030  68.952  0.00  0.00    +0.000 A 
ATOM     18  C   UNL     1      31.262  18.283  68.389  0.00  0.00    +0.000 A 
ATOM     19  C   UNL     1      31.677  19.351  69.217  0.00  0.00    +0.000 A 
ATOM     20  C   UNL     1      31.884  19.255  70.519  0.00  0.00    +0.000 A 
ATOM     21  C   UNL     1      31.993  17.990  71.025  0.00  0.00    +0.000 A 
ATOM     22  C   UNL     1      31.731  16.890  70.243  0.00  0.00    +0.000 A 
BRANCH  17  24
ATOM     23  C   UNL     1      30.994  14.626  68.712  0.00  0.00    +0.000 C 
ATOM     24  O   UNL     1      31.340  15.875  68.134  0.00  0.00    +0.000 OA
ENDBRANCH  17  24
ENDBRANCH  15  20
ENDBRANCH   1  16
TORSDOF 7
ENDMDL
MODEL 2
REMARK VINA RESULT:    -7.560      1.295      2.771
REMARK INTER + INTRA:         -11.469
REMARK INTER:                 -10.739
REMARK INTRA:                  -0.729
REMARK UNBOUND:                -0.815
REMARK  Name = 
REMARK  11 active torsions:
REMARK  status: ('A' for Active; 'I' for Inactive)
REMARK    1  A    between atoms: C_1  and  O_2
REMARK    2  A    between atoms: O_2  and  C_3
REMARK    3  A    between atoms: C_6  and  C_7
REMARK    4  A    between atoms: C_8  and  C_9
REMARK    5  A    between atoms: C_9  and  C_11
REMARK    6  A    between atoms: C_13  and  O_14
REMARK    7  A    between atoms: O_14  and  C_15
REMARK    8  A    between atoms: C_16  and  O_17
REMARK    9  A    between atoms: O_17  and  C_18
REMARK   10  A    between atoms: C_19  and  O_20
REMARK   11  A    between atoms: O_20  and  C_21
REMARK                            x       y       z     vdW  Elec       q    Type
REMARK                         _______ _______ _______ _____ _____    ______ ____
ROOT
ATOM      1  C   UNL     1      31.643  22.756  71.641  0.00  0.00    +0.000 C 
ATOM      2  O   UNL     1      31.086  23.043  72.747  0.00  0.00    +0.000 OA
ENDROOT
BRANCH   1   3
ATOM      3  C   UNL     1      31.991  23.860  70.656  0.00  0.00    +0.000 A 
ATOM      4  C   UNL     1      33.141  23.756  69.892  0.00  0.00    +0.000 A 
ATOM      5  C   UNL     1      33.504  24.956  69.235  0.00  0.00    +0.000 A 
ATOM      6  C   UNL     1      32.691  25.978  69.040  0.00  0.00    +0.000 A 
ATOM      7  C   UNL     1      31.538  25.989  69.776  0.00  0.00    +0.000 A 
ATOM      8  C   UNL     1      31.181  24.905  70.543  0.00  0.00    +0.000 A 
BRANCH   5   9
ATOM      9  O   UNL     1      34.835  25.070  68.755  0.00  0.00    +0.000 OA
ATOM     10  C   UNL     1      35.873  25.483  69.631  0.00  0.00    +0.000 C 
ENDBRANCH   5   9
BRANCH   6  11
ATOM     11  O   UNL     1      32.996  27.011  68.115  0.00  0.00    +0.000 OA
ATOM     12  C   UNL     1      32.793  26.802  66.725  0.00  0.00    +0.000 C 
ENDBRANCH   6  11
BRANCH   7  13
ATOM     13  O   UNL     1      30.700  27.134  69.747  0.00  0.00    +0.000 OA
ATOM     14  C   UNL     1      30.650  28.006  70.868  0.00  0.00    +0.000 C 
ENDBRANCH   7  13
ENDBRANCH   1   3
BRANCH   1  16
ATOM     15  C   UNL     1      31.201  20.640  70.394  0.00  0.00    +0.000 C 
ATOM     16  C   UNL     1      31.960  21.309  71.303  0.00  0.00    +0.000 C 
BRANCH  15  20
ATOM     17  C   UNL     1      31.863  16.520  69.477  0.00  0.00    +0.000 A 
ATOM     18  C   UNL     1      31.423  17.365  68.469  0.00  0.00    +0.000 A 
ATOM     19  C   UNL     1      31.447  18.735  68.818  0.00  0.00    +0.000 A 
ATOM     20  C   UNL     1      31.518  19.192  70.056  0.00  0.00    +0.000 A 
ATOM     21  C   UNL     1      31.893  18.293  71.015  0.00  0.00    +0.000 A 
ATOM     22  C   UNL     1      32.018  16.956  70.722  0.00  0.00    +0.000 A 
BRANCH  17  24
ATOM     23  C   UNL     1      31.173  14.355  68.538  0.00  0.00    +0.000 C 
ATOM     24  O   UNL     1      32.152  15.164  69.172  0.00  0.00    +0.000 OA
ENDBRANCH  17  24
ENDBRANCH  15  20
ENDBRANCH   1  16
TORSDOF 7
ENDMDL
MODEL 3
REMARK VINA RESULT:    -7.557      2.450      9.031
REMARK INTER + INTRA:         -11.464
REMARK INTER:                 -10.715
REMARK INTRA:                  -0.749
REMARK UNBOUND:                -0.815
REMARK  Name = 
REMARK  11 active torsions:
REMARK  status: ('A' for Active; 'I' for Inactive)
REMARK    1  A    between atoms: C_1  and  O_2
REMARK    2  A    between atoms: O_2  and  C_3
REMARK    3  A    between atoms: C_6  and  C_7
REMARK    4  A    between atoms: C_8  and  C_9
REMARK    5  A    between atoms: C_9  and  C_11
REMARK    6  A    between atoms: C_13  and  O_14
REMARK    7  A    between atoms: O_14  and  C_15
REMARK    8  A    between atoms: C_16  and  O_17
REMARK    9  A    between atoms: O_17  and  C_18
REMARK   10  A    between atoms: C_19  and  O_20
REMARK   11  A    between atoms: O_20  and  C_21
REMARK                            x       y       z     vdW  Elec       q    Type
REMARK                         _______ _______ _______ _____ _____    ______ ____
ROOT
ATOM      1  C   UNL     1      34.412  24.087  67.921  0.00  0.00    +0.000 C 
ATOM      2  O   UNL     1      35.107  23.952  66.866  0.00  0.00    +0.000 OA
ENDROOT
BRANCH   1   3
ATOM      3  C   UNL     1      33.542  22.940  68.411  0.00  0.00    +0.000 A 
ATOM      4  C   UNL     1      33.004  22.052  67.495  0.00  0.00    +0.000 A 
ATOM      5  C   UNL     1      31.997  21.214  68.031  0.00  0.00    +0.000 A 
ATOM      6  C   UNL     1      31.806  21.005  69.321  0.00  0.00    +0.000 A 
ATOM      7  C   UNL     1      32.420  21.877  70.177  0.00  0.00    +0.000 A 
ATOM      8  C   UNL     1      33.318  22.808  69.712  0.00  0.00    +0.000 A 
BRANCH   5   9
ATOM      9  O   UNL     1      31.131  20.556  67.119  0.00  0.00    +0.000 OA
ATOM     10  C   UNL     1      30.069  21.271  66.506  0.00  0.00    +0.000 C 
ENDBRANCH   5   9
BRANCH   6  11
ATOM     11  O   UNL     1      31.007  19.930  69.794  0.00  0.00    +0.000 OA
ATOM     12  C   UNL     1      31.587  18.650  69.999  0.00  0.00    +0.000 C 
ENDBRANCH   6  11
BRANCH   7  13
ATOM     13  O   UNL     1      32.125  21.820  71.564  0.00  0.00    +0.000 OA
ATOM     14  C   UNL     1      31.233  22.763  72.140  0.00  0.00    +0.000 C 
ENDBRANCH   7  13
ENDBRANCH   1   3
BRANCH   1  16
ATOM     15  C   UNL     1      35.496  25.670  69.517  0.00  0.00    +0.000 C 
ATOM     16  C   UNL     1      34.449  25.395  68.693  0.00  0.00    +0.000 C 
BRANCH  15  20
ATOM     17  C   UNL     1      35.541  29.459  71.487  0.00  0.00    +0.000 A 
ATOM     18  C   UNL     1      34.333  28.794  71.351  0.00  0.00    +0.000 A 
ATOM     19  C   UNL     1      34.460  27.465  70.887  0.00  0.00    +0.000 A 
ATOM     20  C   UNL     1      35.533  26.978  70.290  0.00  0.00    +0.000 A 
ATOM     21  C   UNL     1      36.679  27.715  70.404  0.00  0.00    +0.000 A 
ATOM     22  C   UNL     1      36.659  28.970  70.964  0.00  0.00    +0.000 A 
BRANCH  17  24
ATOM     23  C   UNL     1      36.811  31.152  72.740  0.00  0.00    +0.000 C 
ATOM     24  O   UNL     1      35.583  30.687  72.199  0.00  0.00    +0.000 OA
ENDBRANCH  17  24
ENDBRANCH  15  20
ENDBRANCH   1  16
TORSDOF 7
ENDMDL
MODEL 4
REMARK VINA RESULT:    -7.516      3.247      8.959
REMARK INTER + INTRA:         -11.407
REMARK INTER:                 -10.676
REMARK INTRA:                  -0.731
REMARK UNBOUND:                -0.815
REMARK  Name = 
REMARK  11 active torsions:
REMARK  status: ('A' for Active; 'I' for Inactive)
REMARK    1  A    between atoms: C_1  and  O_2
REMARK    2  A    between atoms: O_2  and  C_3
REMARK    3  A    between atoms: C_6  and  C_7
REMARK    4  A    between atoms: C_8  and  C_9
REMARK    5  A    between atoms: C_9  and  C_11
REMARK    6  A    between atoms: C_13  and  O_14
REMARK    7  A    between atoms: O_14  and  C_15
REMARK    8  A    between atoms: C_16  and  O_17
REMARK    9  A    between atoms: O_17  and  C_18
REMARK   10  A    between atoms: C_19  and  O_20
REMARK   11  A    between atoms: O_20  and  C_21
REMARK                            x       y       z     vdW  Elec       q    Type
REMARK                         _______ _______ _______ _____ _____    ______ ____
ROOT
ATOM      1  C   UNL     1      34.181  24.325  68.253  0.00  0.00    +0.000 C 
ATOM      2  O   UNL     1      34.628  24.055  67.094  0.00  0.00    +0.000 OA
ENDROOT
BRANCH   1   3
ATOM      3  C   UNL     1      32.924  23.638  68.762  0.00  0.00    +0.000 A 
ATOM      4  C   UNL     1      32.815  23.323  70.106  0.00  0.00    +0.000 A 
ATOM      5  C   UNL     1      31.747  22.443  70.404  0.00  0.00    +0.000 A 
ATOM      6  C   UNL     1      30.724  22.209  69.602  0.00  0.00    +0.000 A 
ATOM      7  C   UNL     1      30.867  22.605  68.301  0.00  0.00    +0.000 A 
ATOM      8  C   UNL     1      31.949  23.356  67.907  0.00  0.00    +0.000 A 
BRANCH   5   9
ATOM      9  O   UNL     1      31.778  21.765  71.651  0.00  0.00    +0.000 OA
ATOM     10  C   UNL     1      32.401  20.493  71.752  0.00  0.00    +0.000 C 
ENDBRANCH   5   9
BRANCH   6  11
ATOM     11  O   UNL     1      29.539  21.579  70.066  0.00  0.00    +0.000 OA
ATOM     12  C   UNL     1      28.449  22.366  70.523  0.00  0.00    +0.000 C 
ENDBRANCH   6  11
BRANCH   7  13
ATOM     13  O   UNL     1      29.885  22.235  67.345  0.00  0.00    +0.000 OA
ATOM     14  C   UNL     1      30.052  21.053  66.576  0.00  0.00    +0.000 C 
ENDBRANCH   7  13
ENDBRANCH   1   3
BRANCH   1  16
ATOM     15  C   UNL     1      34.291  26.503  69.466  0.00  0.00    +0.000 C 
ATOM     16  C   UNL     1      34.902  25.336  69.129  0.00  0.00    +0.000 C 
BRANCH  15  20
ATOM     17  C   UNL     1      36.298  29.502  71.751  0.00  0.00    +0.000 A 
ATOM     18  C   UNL     1      34.912  29.482  71.750  0.00  0.00    +0.000 A 
ATOM     19  C   UNL     1      34.356  28.330  71.148  0.00  0.00    +0.000 A 
ATOM     20  C   UNL     1      35.012  27.514  70.342  0.00  0.00    +0.000 A 
ATOM     21  C   UNL     1      36.374  27.629  70.339  0.00  0.00    +0.000 A 
ATOM     22  C   UNL     1      37.000  28.652  71.010  0.00  0.00    +0.000 A 
BRANCH  17  24
ATOM     23  C   UNL     1      36.923  31.831  72.235  0.00  0.00    +0.000 C 
ATOM     24  O   UNL     1      36.980  30.450  72.559  0.00  0.00    +0.000 OA
ENDBRANCH  17  24
ENDBRANCH  15  20
ENDBRANCH   1  16
TORSDOF 7
ENDMDL
MODEL 5
REMARK VINA RESULT:    -7.472      2.434      8.583
REMARK INTER + INTRA:         -11.345
REMARK INTER:                 -10.573
REMARK INTRA:                  -0.773
REMARK UNBOUND:                -0.815
REMARK  Name = 
REMARK  11 active torsions:
REMARK  status: ('A' for Active; 'I' for Inactive)
REMARK    1  A    between atoms: C_1  and  O_2
REMARK    2  A    between atoms: O_2  and  C_3
REMARK    3  A    between atoms: C_6  and  C_7
REMARK    4  A    between atoms: C_8  and  C_9
REMARK    5  A    between atoms: C_9  and  C_11
REMARK    6  A    between atoms: C_13  and  O_14
REMARK    7  A    between atoms: O_14  and  C_15
REMARK    8  A    between atoms: C_16  and  O_17
REMARK    9  A    between atoms: O_17  and  C_18
REMARK   10  A    between atoms: C_19  and  O_20
REMARK   11  A    between atoms: O_20  and  C_21
REMARK                            x       y       z     vdW  Elec       q    Type
REMARK                         _______ _______ _______ _____ _____    ______ ____
ROOT
ATOM      1  C   UNL     1      31.902  24.250  72.327  0.00  0.00    +0.000 C 
ATOM      2  O   UNL     1      31.180  24.372  73.366  0.00  0.00    +0.000 OA
ENDROOT
BRANCH   1   3
ATOM      3  C   UNL     1      31.610  23.145  71.324  0.00  0.00    +0.000 A 
ATOM      4  C   UNL     1      32.657  22.541  70.649  0.00  0.00    +0.000 A 
ATOM      5  C   UNL     1      32.249  21.745  69.552  0.00  0.00    +0.000 A 
ATOM      6  C   UNL     1      31.020  21.297  69.368  0.00  0.00    +0.000 A 
ATOM      7  C   UNL     1      30.038  21.888  70.115  0.00  0.00    +0.000 A 
ATOM      8  C   UNL     1      30.352  22.774  71.118  0.00  0.00    +0.000 A 
BRANCH   5   9
ATOM      9  O   UNL     1      33.228  21.404  68.582  0.00  0.00    +0.000 OA
ATOM     10  C   UNL     1      33.601  22.348  67.589  0.00  0.00    +0.000 C 
ENDBRANCH   5   9
BRANCH   6  11
ATOM     11  O   UNL     1      30.733  20.257  68.445  0.00  0.00    +0.000 OA
ATOM     12  C   UNL     1      30.863  18.900  68.840  0.00  0.00    +0.000 C 
ENDBRANCH   6  11
BRANCH   7  13
ATOM     13  O   UNL     1      28.678  21.581  69.851  0.00  0.00    +0.000 OA
ATOM     14  C   UNL     1      27.651  22.174  70.633  0.00  0.00    +0.000 C 
ENDBRANCH   7  13
ENDBRANCH   1   3
BRANCH   1  16
ATOM     15  C   UNL     1      33.008  26.085  71.048  0.00  0.00    +0.000 C 
ATOM     16  C   UNL     1      33.057  25.207  72.086  0.00  0.00    +0.000 C 
BRANCH  15  20
ATOM     17  C   UNL     1      36.337  28.722  70.588  0.00  0.00    +0.000 A 
ATOM     18  C   UNL     1      36.506  27.378  70.292  0.00  0.00    +0.000 A 
ATOM     19  C   UNL     1      35.299  26.641  70.266  0.00  0.00    +0.000 A 
ATOM     20  C   UNL     1      34.163  27.043  70.808  0.00  0.00    +0.000 A 
ATOM     21  C   UNL     1      34.083  28.366  71.140  0.00  0.00    +0.000 A 
ATOM     22  C   UNL     1      35.187  29.182  71.068  0.00  0.00    +0.000 A 
BRANCH  17  24
ATOM     23  C   UNL     1      37.179  31.022  70.379  0.00  0.00    +0.000 C 
ATOM     24  O   UNL     1      37.414  29.622  70.376  0.00  0.00    +0.000 OA
ENDBRANCH  17  24
ENDBRANCH  15  20
ENDBRANCH   1  16
TORSDOF 7
ENDMDL
MODEL 6
REMARK VINA RESULT:    -7.417      1.850      3.002
REMARK INTER + INTRA:         -11.268
REMARK INTER:                 -10.575
REMARK INTRA:                  -0.693
REMARK UNBOUND:                -0.815
REMARK  Name = 
REMARK  11 active torsions:
REMARK  status: ('A' for Active; 'I' for Inactive)
REMARK    1  A    between atoms: C_1  and  O_2
REMARK    2  A    between atoms: O_2  and  C_3
REMARK    3  A    between atoms: C_6  and  C_7
REMARK    4  A    between atoms: C_8  and  C_9
REMARK    5  A    between atoms: C_9  and  C_11
REMARK    6  A    between atoms: C_13  and  O_14
REMARK    7  A    between atoms: O_14  and  C_15
REMARK    8  A    between atoms: C_16  and  O_17
REMARK    9  A    between atoms: O_17  and  C_18
REMARK   10  A    between atoms: C_19  and  O_20
REMARK   11  A    between atoms: O_20  and  C_21
REMARK                            x       y       z     vdW  Elec       q    Type
REMARK                         _______ _______ _______ _____ _____    ______ ____
ROOT
ATOM      1  C   UNL     1      33.614  23.314  68.094  0.00  0.00    +0.000 C 
ATOM      2  O   UNL     1      33.959  23.207  66.876  0.00  0.00    +0.000 OA
ENDROOT
BRANCH   1   3
ATOM      3  C   UNL     1      33.654  24.671  68.779  0.00  0.00    +0.000 A 
ATOM      4  C   UNL     1      33.849  24.739  70.148  0.00  0.00    +0.000 A 
ATOM      5  C   UNL     1      33.584  26.014  70.703  0.00  0.00    +0.000 A 
ATOM      6  C   UNL     1      33.511  27.133  70.005  0.00  0.00    +0.000 A 
ATOM      7  C   UNL     1      33.386  27.000  68.650  0.00  0.00    +0.000 A 
ATOM      8  C   UNL     1      33.505  25.769  68.049  0.00  0.00    +0.000 A 
BRANCH   5   9
ATOM      9  O   UNL     1      33.380  26.095  72.106  0.00  0.00    +0.000 OA
ATOM     10  C   UNL     1      32.433  25.246  72.736  0.00  0.00    +0.000 C 
ENDBRANCH   5   9
BRANCH   6  11
ATOM     11  O   UNL     1      33.559  28.408  70.630  0.00  0.00    +0.000 OA
ATOM     12  C   UNL     1      34.813  29.009  70.920  0.00  0.00    +0.000 C 
ENDBRANCH   6  11
BRANCH   7  13
ATOM     13  O   UNL     1      33.132  28.147  67.854  0.00  0.00    +0.000 OA
ATOM     14  C   UNL     1      32.228  28.067  66.762  0.00  0.00    +0.000 C 
ENDBRANCH   7  13
ENDBRANCH   1   3
BRANCH   1  16
ATOM     15  C   UNL     1      32.351  21.169  68.273  0.00  0.00    +0.000 C 
ATOM     16  C   UNL     1      33.161  22.087  68.867  0.00  0.00    +0.000 C 
BRANCH  15  20
ATOM     17  C   UNL     1      31.294  17.624  70.409  0.00  0.00    +0.000 A 
ATOM     18  C   UNL     1      31.961  18.634  71.084  0.00  0.00    +0.000 A 
ATOM     19  C   UNL     1      32.067  19.839  70.352  0.00  0.00    +0.000 A 
ATOM     20  C   UNL     1      31.898  19.941  69.046  0.00  0.00    +0.000 A 
ATOM     21  C   UNL     1      31.295  18.882  68.427  0.00  0.00    +0.000 A 
ATOM     22  C   UNL     1      31.039  17.716  69.108  0.00  0.00    +0.000 A 
BRANCH  17  24
ATOM     23  C   UNL     1      29.889  15.612  70.566  0.00  0.00    +0.000 C 
ATOM     24  O   UNL     1      30.876  16.469  71.120  0.00  0.00    +0.000 OA
ENDBRANCH  17  24
ENDBRANCH  15  20
ENDBRANCH   1  16
TORSDOF 7
ENDMDL
MODEL 7
REMARK VINA RESULT:    -7.392      3.586      9.470
REMARK INTER + INTRA:         -11.233
REMARK INTER:                 -10.470
REMARK INTRA:                  -0.762
REMARK UNBOUND:                -0.815
REMARK  Name = 
REMARK  11 active torsions:
REMARK  status: ('A' for Active; 'I' for Inactive)
REMARK    1  A    between atoms: C_1  and  O_2
REMARK    2  A    between atoms: O_2  and  C_3
REMARK    3  A    between atoms: C_6  and  C_7
REMARK    4  A    between atoms: C_8  and  C_9
REMARK    5  A    between atoms: C_9  and  C_11
REMARK    6  A    between atoms: C_13  and  O_14
REMARK    7  A    between atoms: O_14  and  C_15
REMARK    8  A    between atoms: C_16  and  O_17
REMARK    9  A    between atoms: O_17  and  C_18
REMARK   10  A    between atoms: C_19  and  O_20
REMARK   11  A    between atoms: O_20  and  C_21
REMARK                            x       y       z     vdW  Elec       q    Type
REMARK                         _______ _______ _______ _____ _____    ______ ____
ROOT
ATOM      1  C   UNL     1      31.089  27.551  68.754  0.00  0.00    +0.000 C 
ATOM      2  O   UNL     1      30.384  27.978  67.787  0.00  0.00    +0.000 OA
ENDROOT
BRANCH   1   3
ATOM      3  C   UNL     1      30.879  26.141  69.283  0.00  0.00    +0.000 A 
ATOM      4  C   UNL     1      30.481  25.138  68.415  0.00  0.00    +0.000 A 
ATOM      5  C   UNL     1      30.046  23.957  69.063  0.00  0.00    +0.000 A 
ATOM      6  C   UNL     1      30.308  23.654  70.321  0.00  0.00    +0.000 A 
ATOM      7  C   UNL     1      30.763  24.673  71.111  0.00  0.00    +0.000 A 
ATOM      8  C   UNL     1      31.086  25.895  70.571  0.00  0.00    +0.000 A 
BRANCH   5   9
ATOM      9  O   UNL     1      29.273  23.036  68.308  0.00  0.00    +0.000 OA
ATOM     10  C   UNL     1      27.859  23.160  68.270  0.00  0.00    +0.000 C 
ENDBRANCH   5   9
BRANCH   6  11
ATOM     11  O   UNL     1      30.129  22.339  70.826  0.00  0.00    +0.000 OA
ATOM     12  C   UNL     1      31.216  21.425  70.831  0.00  0.00    +0.000 C 
ENDBRANCH   6  11
BRANCH   7  13
ATOM     13  O   UNL     1      30.903  24.465  72.509  0.00  0.00    +0.000 OA
ATOM     14  C   UNL     1      32.019  25.009  73.199  0.00  0.00    +0.000 C 
ENDBRANCH   7  13
ENDBRANCH   1   3
BRANCH   1  16
ATOM     15  C   UNL     1      33.462  28.210  69.155  0.00  0.00    +0.000 C 
ATOM     16  C   UNL     1      32.142  28.448  69.383  0.00  0.00    +0.000 C 
BRANCH  15  20
ATOM     17  C   UNL     1      36.249  30.841  71.041  0.00  0.00    +0.000 A 
ATOM     18  C   UNL     1      35.853  29.697  71.715  0.00  0.00    +0.000 A 
ATOM     19  C   UNL     1      35.109  28.794  70.922  0.00  0.00    +0.000 A 
ATOM     20  C   UNL     1      34.516  29.108  69.784  0.00  0.00    +0.000 A 
ATOM     21  C   UNL     1      34.901  30.283  69.202  0.00  0.00    +0.000 A 
ATOM     22  C   UNL     1      35.731  31.159  69.860  0.00  0.00    +0.000 A 
BRANCH  17  24
ATOM     23  C   UNL     1      37.204  31.942  73.022  0.00  0.00    +0.000 C 
ATOM     24  O   UNL     1      37.225  31.691  71.625  0.00  0.00    +0.000 OA
ENDBRANCH  17  24
ENDBRANCH  15  20
ENDBRANCH   1  16
TORSDOF 7
ENDMDL
MODEL 8
REMARK VINA RESULT:    -7.366      1.882      3.348
REMARK INTER + INTRA:         -11.196
REMARK INTER:                 -10.392
REMARK INTRA:                  -0.804
REMARK UNBOUND:                -0.815
REMARK  Name = 
REMARK  11 active torsions:
REMARK  status: ('A' for Active; 'I' for Inactive)
REMARK    1  A    between atoms: C_1  and  O_2
REMARK    2  A    between atoms: O_2  and  C_3
REMARK    3  A    between atoms: C_6  and  C_7
REMARK    4  A    between atoms: C_8  and  C_9
REMARK    5  A    between atoms: C_9  and  C_11
REMARK    6  A    between atoms: C_13  and  O_14
REMARK    7  A    between atoms: O_14  and  C_15
REMARK    8  A    between atoms: C_16  and  O_17
REMARK    9  A    between atoms: O_17  and  C_18
REMARK   10  A    between atoms: C_19  and  O_20
REMARK   11  A    between atoms: O_20  and  C_21
REMARK                            x       y       z     vdW  Elec       q    Type
REMARK                         _______ _______ _______ _____ _____    ______ ____
ROOT
ATOM      1  C   UNL     1      33.799  23.185  67.893  0.00  0.00    +0.000 C 
ATOM      2  O   UNL     1      34.428  23.207  66.790  0.00  0.00    +0.000 OA
ENDROOT
BRANCH   1   3
ATOM      3  C   UNL     1      33.384  24.488  68.557  0.00  0.00    +0.000 A 
ATOM      4  C   UNL     1      33.074  25.586  67.773  0.00  0.00    +0.000 A 
ATOM      5  C   UNL     1      32.985  26.800  68.495  0.00  0.00    +0.000 A 
ATOM      6  C   UNL     1      32.842  26.884  69.805  0.00  0.00    +0.000 A 
ATOM      7  C   UNL     1      33.098  25.746  70.519  0.00  0.00    +0.000 A 
ATOM      8  C   UNL     1      33.323  24.549  69.882  0.00  0.00    +0.000 A 
BRANCH   5   9
ATOM      9  O   UNL     1      33.056  28.013  67.759  0.00  0.00    +0.000 OA
ATOM     10  C   UNL     1      32.350  28.143  66.535  0.00  0.00    +0.000 C 
ENDBRANCH   5   9
BRANCH   6  11
ATOM     11  O   UNL     1      32.444  28.090  70.439  0.00  0.00    +0.000 OA
ATOM     12  C   UNL     1      31.070  28.333  70.704  0.00  0.00    +0.000 C 
ENDBRANCH   6  11
BRANCH   7  13
ATOM     13  O   UNL     1      33.132  25.802  71.937  0.00  0.00    +0.000 OA
ATOM     14  C   UNL     1      32.160  25.101  72.699  0.00  0.00    +0.000 C 
ENDBRANCH   7  13
ENDBRANCH   1   3
BRANCH   1  16
ATOM     15  C   UNL     1      32.178  21.404  68.547  0.00  0.00    +0.000 C 
ATOM     16  C   UNL     1      33.461  21.857  68.550  0.00  0.00    +0.000 C 
BRANCH  15  20
ATOM     17  C   UNL     1      31.453  17.602  70.355  0.00  0.00    +0.000 A 
ATOM     18  C   UNL     1      31.995  18.615  71.130  0.00  0.00    +0.000 A 
ATOM     19  C   UNL     1      31.990  19.882  70.502  0.00  0.00    +0.000 A 
ATOM     20  C   UNL     1      31.840  20.075  69.204  0.00  0.00    +0.000 A 
ATOM     21  C   UNL     1      31.365  19.015  68.483  0.00  0.00    +0.000 A 
ATOM     22  C   UNL     1      31.218  17.776  69.059  0.00  0.00    +0.000 A 
BRANCH  17  24
ATOM     23  C   UNL     1      29.978  15.645  70.563  0.00  0.00    +0.000 C 
ATOM     24  O   UNL     1      31.143  16.354  70.958  0.00  0.00    +0.000 OA
ENDBRANCH  17  24
ENDBRANCH  15  20
ENDBRANCH   1  16
TORSDOF 7
ENDMDL
MODEL 9
REMARK VINA RESULT:    -7.287      3.359      9.215
REMARK INTER + INTRA:         -11.085
REMARK INTER:                 -10.270
REMARK INTRA:                  -0.815
REMARK UNBOUND:                -0.815
REMARK  Name = 
REMARK  11 active torsions:
REMARK  status: ('A' for Active; 'I' for Inactive)
REMARK    1  A    between atoms: C_1  and  O_2
REMARK    2  A    between atoms: O_2  and  C_3
REMARK    3  A    between atoms: C_6  and  C_7
REMARK    4  A    between atoms: C_8  and  C_9
REMARK    5  A    between atoms: C_9  and  C_11
REMARK    6  A    between atoms: C_13  and  O_14
REMARK    7  A    between atoms: O_14  and  C_15
REMARK    8  A    between atoms: C_16  and  O_17
REMARK    9  A    between atoms: O_17  and  C_18
REMARK   10  A    between atoms: C_19  and  O_20
REMARK   11  A    between atoms: O_20  and  C_21
REMARK                            x       y       z     vdW  Elec       q    Type
REMARK                         _______ _______ _______ _____ _____    ______ ____
ROOT
ATOM      1  C   UNL     1      31.186  26.773  67.596  0.00  0.00    +0.000 C 
ATOM      2  O   UNL     1      30.189  27.305  67.015  0.00  0.00    +0.000 OA
ENDROOT
BRANCH   1   3
ATOM      3  C   UNL     1      31.248  25.264  67.770  0.00  0.00    +0.000 A 
ATOM      4  C   UNL     1      32.325  24.561  67.256  0.00  0.00    +0.000 A 
ATOM      5  C   UNL     1      32.133  23.159  67.226  0.00  0.00    +0.000 A 
ATOM      6  C   UNL     1      31.216  22.514  67.923  0.00  0.00    +0.000 A 
ATOM      7  C   UNL     1      30.215  23.273  68.462  0.00  0.00    +0.000 A 
ATOM      8  C   UNL     1      30.267  24.646  68.417  0.00  0.00    +0.000 A 
BRANCH   5   9
ATOM      9  O   UNL     1      32.985  22.394  66.387  0.00  0.00    +0.000 OA
ATOM     10  C   UNL     1      34.283  22.032  66.833  0.00  0.00    +0.000 C 
ENDBRANCH   5   9
BRANCH   6  11
ATOM     11  O   UNL     1      31.267  21.106  68.105  0.00  0.00    +0.000 OA
ATOM     12  C   UNL     1      31.932  20.559  69.234  0.00  0.00    +0.000 C 
ENDBRANCH   6  11
BRANCH   7  13
ATOM     13  O   UNL     1      29.106  22.635  69.077  0.00  0.00    +0.000 OA
ATOM     14  C   UNL     1      29.012  22.583  70.494  0.00  0.00    +0.000 C 
ENDBRANCH   7  13
ENDBRANCH   1   3
BRANCH   1  16
ATOM     15  C   UNL     1      32.771  27.480  69.389  0.00  0.00    +0.000 C 
ATOM     16  C   UNL     1      32.316  27.644  68.118  0.00  0.00    +0.000 C 
BRANCH  15  20
ATOM     17  C   UNL     1      36.096  29.817  70.705  0.00  0.00    +0.000 A 
ATOM     18  C   UNL     1      35.413  30.213  69.567  0.00  0.00    +0.000 A 
ATOM     19  C   UNL     1      34.209  29.506  69.345  0.00  0.00    +0.000 A 
ATOM     20  C   UNL     1      33.902  28.352  69.910  0.00  0.00    +0.000 A 
ATOM     21  C   UNL     1      34.657  27.984  70.989  0.00  0.00    +0.000 A 
ATOM     22  C   UNL     1      35.775  28.699  71.347  0.00  0.00    +0.000 A 
BRANCH  17  24
ATOM     23  C   UNL     1      36.888  31.702  72.072  0.00  0.00    +0.000 C 
ATOM     24  O   UNL     1      37.161  30.619  71.194  0.00  0.00    +0.000 OA
ENDBRANCH  17  24
ENDBRANCH  15  20
ENDBRANCH   1  16
TORSDOF 7
ENDMDL
