MODEL 1
REMARK VINA RESULT:    -8.017      0.000      0.000
REMARK INTER + INTRA:         -10.776
REMARK INTER:                  -9.965
REMARK INTRA:                  -0.811
REMARK UNBOUND:                -0.416
REMARK  Name = 
REMARK  7 active torsions:
REMARK  status: ('A' for Active; 'I' for Inactive)
REMARK    1  A    between atoms: C_1  and  O_2
REMARK    2  A    between atoms: O_2  and  C_3
REMARK    3  A    between atoms: C_6  and  C_7
REMARK    4  A    between atoms: C_7  and  C_9
REMARK    5  A    between atoms: C_10  and  C_11
REMARK    6  A    between atoms: C_14  and  O_15
REMARK    7  A    between atoms: C_18  and  O_19
REMARK                            x       y       z     vdW  Elec       q    Type
REMARK                         _______ _______ _______ _____ _____    ______ ____
ROOT
ATOM      1  C   UNL     1      33.040  27.563  68.811  0.00  0.00    +0.000 C 
ATOM      2  O   UNL     1      32.858  27.472  67.557  0.00  0.00    +0.000 OA
ENDROOT
BRANCH   1   6
ATOM      3  C   UNL     1      31.549  24.541  71.455  0.00  0.00    +0.000 A 
ATOM      4  C   UNL     1      30.924  25.763  71.377  0.00  0.00    +0.000 A 
ATOM      5  C   UNL     1      31.409  26.736  70.525  0.00  0.00    +0.000 A 
ATOM      6  C   UNL     1      32.507  26.483  69.737  0.00  0.00    +0.000 A 
ATOM      7  C   UNL     1      33.124  25.253  69.784  0.00  0.00    +0.000 A 
ATOM      8  C   UNL     1      32.659  24.245  70.637  0.00  0.00    +0.000 A 
BRANCH   3  10
ATOM      9  C   UNL     1      31.259  22.249  72.115  0.00  0.00    +0.000 C 
ATOM     10  O   UNL     1      31.046  23.638  72.326  0.00  0.00    +0.000 OA
ENDBRANCH   3  10
BRANCH   7  11
ATOM     11  O   UNL     1      34.249  25.003  68.956  0.00  0.00    +0.000 OA
ATOM     12  H   UNL     1      35.168  24.990  69.350  0.00  0.00    +0.000 HD
ENDBRANCH   7  11
ENDBRANCH   1   6
BRANCH   1  13
ATOM     13  C   UNL     1      33.790  28.754  69.386  0.00  0.00    +0.000 C 
ATOM     14  C   UNL     1      34.878  28.554  70.178  0.00  0.00    +0.000 C 
BRANCH  14  15
ATOM     15  C   UNL     1      35.629  29.745  70.752  0.00  0.00    +0.000 A 
ATOM     16  C   UNL     1      35.704  30.930  70.052  0.00  0.00    +0.000 A 
ATOM     17  C   UNL     1      36.349  32.046  70.591  0.00  0.00    +0.000 A 
ATOM     18  C   UNL     1      36.903  31.920  71.882  0.00  0.00    +0.000 A 
ATOM     19  C   UNL     1      36.847  30.724  72.558  0.00  0.00    +0.000 A 
ATOM     20  C   UNL     1      36.202  29.640  71.996  0.00  0.00    +0.000 A 
BRANCH  18  21
ATOM     21  O   UNL     1      37.525  32.954  72.494  0.00  0.00    +0.000 OA
ATOM     22  H   UNL     1      37.171  33.308  73.361  0.00  0.00    +0.000 HD
ENDBRANCH  18  21
ENDBRANCH  14  15
ENDBRANCH   1  13
TORSDOF 6
ENDMDL
MODEL 2
REMARK VINA RESULT:    -7.884      3.629      9.811
REMARK INTER + INTRA:         -10.605
REMARK INTER:                  -9.920
REMARK INTRA:                  -0.685
REMARK UNBOUND:                -0.416
REMARK  Name = 
REMARK  7 active torsions:
REMARK  status: ('A' for Active; 'I' for Inactive)
REMARK    1  A    between atoms: C_1  and  O_2
REMARK    2  A    between atoms: O_2  and  C_3
REMARK    3  A    between atoms: C_6  and  C_7
REMARK    4  A    between atoms: C_7  and  C_9
REMARK    5  A    between atoms: C_10  and  C_11
REMARK    6  A    between atoms: C_14  and  O_15
REMARK    7  A    between atoms: C_18  and  O_19
REMARK                            x       y       z     vdW  Elec       q    Type
REMARK                         _______ _______ _______ _____ _____    ______ ____
ROOT
ATOM      1  C   UNL     1      31.544  22.741  71.773  0.00  0.00    +0.000 C 
ATOM      2  O   UNL     1      31.012  22.793  72.926  0.00  0.00    +0.000 OA
ENDROOT
BRANCH   1   6
ATOM      3  C   UNL     1      33.901  26.024  70.358  0.00  0.00    +0.000 A 
ATOM      4  C   UNL     1      34.246  24.733  70.033  0.00  0.00    +0.000 A 
ATOM      5  C   UNL     1      33.484  23.677  70.493  0.00  0.00    +0.000 A 
ATOM      6  C   UNL     1      32.369  23.910  71.262  0.00  0.00    +0.000 A 
ATOM      7  C   UNL     1      31.996  25.199  71.569  0.00  0.00    +0.000 A 
ATOM      8  C   UNL     1      32.745  26.293  71.120  0.00  0.00    +0.000 A 
BRANCH   3  10
ATOM      9  C   UNL     1      34.459  28.360  70.294  0.00  0.00    +0.000 C 
ATOM     10  O   UNL     1      34.699  27.016  69.902  0.00  0.00    +0.000 OA
ENDBRANCH   3  10
BRANCH   7  11
ATOM     11  O   UNL     1      30.835  25.424  72.354  0.00  0.00    +0.000 OA
ATOM     12  H   UNL     1      30.242  24.658  72.601  0.00  0.00    +0.000 HD
ENDBRANCH   7  11
ENDBRANCH   1   6
BRANCH   1  13
ATOM     13  C   UNL     1      31.353  21.508  70.904  0.00  0.00    +0.000 C 
ATOM     14  C   UNL     1      31.980  20.345  71.228  0.00  0.00    +0.000 C 
BRANCH  14  15
ATOM     15  C   UNL     1      31.789  19.112  70.360  0.00  0.00    +0.000 A 
ATOM     16  C   UNL     1      31.935  17.850  70.893  0.00  0.00    +0.000 A 
ATOM     17  C   UNL     1      31.714  16.708  70.117  0.00  0.00    +0.000 A 
ATOM     18  C   UNL     1      31.319  16.896  68.776  0.00  0.00    +0.000 A 
ATOM     19  C   UNL     1      31.205  18.161  68.247  0.00  0.00    +0.000 A 
ATOM     20  C   UNL     1      31.431  19.267  69.042  0.00  0.00    +0.000 A 
BRANCH  18  21
ATOM     21  O   UNL     1      31.060  15.852  67.957  0.00  0.00    +0.000 OA
ATOM     22  H   UNL     1      30.422  15.137  68.246  0.00  0.00    +0.000 HD
ENDBRANCH  18  21
ENDBRANCH  14  15
ENDBRANCH   1  13
TORSDOF 6
ENDMDL
MODEL 3
REMARK VINA RESULT:    -7.869      4.987     10.796
REMARK INTER + INTRA:         -10.585
REMARK INTER:                  -9.940
REMARK INTRA:                  -0.645
REMARK UNBOUND:                -0.416
REMARK  Name = 
REMARK  7 active torsions:
REMARK  status: ('A' for Active; 'I' for Inactive)
REMARK    1  A    between atoms: C_1  and  O_2
REMARK    2  A    between atoms: O_2  and  C_3
REMARK    3  A    between atoms: C_6  and  C_7
REMARK    4  A    between atoms: C_7  and  C_9
REMARK    5  A    between atoms: C_10  and  C_11
REMARK    6  A    between atoms: C_14  and  O_15
REMARK    7  A    between atoms: C_18  and  O_19
REMARK                            x       y       z     vdW  Elec       q    Type
REMARK                         _______ _______ _______ _____ _____    ______ ____
ROOT
ATOM      1  C   UNL     1      31.999  21.531  70.374  0.00  0.00    +0.000 C 
ATOM      2  O   UNL     1      32.159  21.709  71.622  0.00  0.00    +0.000 OA
ENDROOT
BRANCH   1   6
ATOM      3  C   UNL     1      32.868  24.672  67.595  0.00  0.00    +0.000 A 
ATOM      4  C   UNL     1      31.669  24.003  67.531  0.00  0.00    +0.000 A 
ATOM      5  C   UNL     1      31.393  22.989  68.428  0.00  0.00    +0.000 A 
ATOM      6  C   UNL     1      32.306  22.656  69.399  0.00  0.00    +0.000 A 
ATOM      7  C   UNL     1      33.498  23.339  69.493  0.00  0.00    +0.000 A 
ATOM      8  C   UNL     1      33.809  24.371  68.601  0.00  0.00    +0.000 A 
BRANCH   3  10
ATOM      9  C   UNL     1      32.759  26.987  66.962  0.00  0.00    +0.000 C 
ATOM     10  O   UNL     1      33.093  25.637  66.675  0.00  0.00    +0.000 OA
ENDBRANCH   3  10
BRANCH   7  11
ATOM     11  O   UNL     1      34.426  22.991  70.509  0.00  0.00    +0.000 OA
ATOM     12  H   UNL     1      34.920  22.124  70.460  0.00  0.00    +0.000 HD
ENDBRANCH   7  11
ENDBRANCH   1   6
BRANCH   1  13
ATOM     13  C   UNL     1      31.498  20.193  69.856  0.00  0.00    +0.000 C 
ATOM     14  C   UNL     1      31.768  19.052  70.546  0.00  0.00    +0.000 C 
BRANCH  14  15
ATOM     15  C   UNL     1      31.266  17.714  70.028  0.00  0.00    +0.000 A 
ATOM     16  C   UNL     1      31.497  17.336  68.724  0.00  0.00    +0.000 A 
ATOM     17  C   UNL     1      31.084  16.087  68.250  0.00  0.00    +0.000 A 
ATOM     18  C   UNL     1      30.439  15.224  69.161  0.00  0.00    +0.000 A 
ATOM     19  C   UNL     1      30.188  15.624  70.453  0.00  0.00    +0.000 A 
ATOM     20  C   UNL     1      30.610  16.865  70.888  0.00  0.00    +0.000 A 
BRANCH  18  21
ATOM     21  O   UNL     1      30.026  13.988  68.800  0.00  0.00    +0.000 OA
ATOM     22  H   UNL     1      30.679  13.337  68.411  0.00  0.00    +0.000 HD
ENDBRANCH  18  21
ENDBRANCH  14  15
ENDBRANCH   1  13
TORSDOF 6
ENDMDL
MODEL 4
REMARK VINA RESULT:    -7.831      2.109      3.748
REMARK INTER + INTRA:         -10.537
REMARK INTER:                  -9.856
REMARK INTRA:                  -0.681
REMARK UNBOUND:                -0.416
REMARK  Name = 
REMARK  7 active torsions:
REMARK  status: ('A' for Active; 'I' for Inactive)
REMARK    1  A    between atoms: C_1  and  O_2
REMARK    2  A    between atoms: O_2  and  C_3
REMARK    3  A    between atoms: C_6  and  C_7
REMARK    4  A    between atoms: C_7  and  C_9
REMARK    5  A    between atoms: C_10  and  C_11
REMARK    6  A    between atoms: C_14  and  O_15
REMARK    7  A    between atoms: C_18  and  O_19
REMARK                            x       y       z     vdW  Elec       q    Type
REMARK                         _______ _______ _______ _____ _____    ______ ____
ROOT
ATOM      1  C   UNL     1      33.996  26.431  69.463  0.00  0.00    +0.000 C 
ATOM      2  O   UNL     1      34.250  25.201  69.658  0.00  0.00    +0.000 OA
ENDROOT
BRANCH   1   6
ATOM      3  C   UNL     1      30.770  27.610  66.905  0.00  0.00    +0.000 A 
ATOM      4  C   UNL     1      32.054  27.551  66.418  0.00  0.00    +0.000 A 
ATOM      5  C   UNL     1      33.092  27.172  67.247  0.00  0.00    +0.000 A 
ATOM      6  C   UNL     1      32.846  26.835  68.556  0.00  0.00    +0.000 A 
ATOM      7  C   UNL     1      31.560  26.861  69.047  0.00  0.00    +0.000 A 
ATOM      8  C   UNL     1      30.485  27.240  68.235  0.00  0.00    +0.000 A 
BRANCH   3  10
ATOM      9  C   UNL     1      29.278  29.332  66.142  0.00  0.00    +0.000 C 
ATOM     10  O   UNL     1      29.799  28.013  66.055  0.00  0.00    +0.000 OA
ENDBRANCH   3  10
BRANCH   7  11
ATOM     11  O   UNL     1      31.320  26.499  70.398  0.00  0.00    +0.000 OA
ATOM     12  H   UNL     1      30.790  25.678  70.610  0.00  0.00    +0.000 HD
ENDBRANCH   7  11
ENDBRANCH   1   6
BRANCH   1  13
ATOM     13  C   UNL     1      34.843  27.498  70.137  0.00  0.00    +0.000 C 
ATOM     14  C   UNL     1      34.566  28.814  69.934  0.00  0.00    +0.000 C 
BRANCH  14  15
ATOM     15  C   UNL     1      35.412  29.882  70.609  0.00  0.00    +0.000 A 
ATOM     16  C   UNL     1      35.586  31.115  70.019  0.00  0.00    +0.000 A 
ATOM     17  C   UNL     1      36.321  32.121  70.652  0.00  0.00    +0.000 A 
ATOM     18  C   UNL     1      36.862  31.833  71.923  0.00  0.00    +0.000 A 
ATOM     19  C   UNL     1      36.706  30.589  72.489  0.00  0.00    +0.000 A 
ATOM     20  C   UNL     1      35.973  29.618  71.835  0.00  0.00    +0.000 A 
BRANCH  18  21
ATOM     21  O   UNL     1      37.566  32.753  72.622  0.00  0.00    +0.000 OA
ATOM     22  H   UNL     1      37.095  33.368  73.254  0.00  0.00    +0.000 HD
ENDBRANCH  18  21
ENDBRANCH  14  15
ENDBRANCH   1  13
TORSDOF 6
ENDMDL
MODEL 5
REMARK VINA RESULT:    -7.794      3.567      5.109
REMARK INTER + INTRA:         -10.489
REMARK INTER:                  -9.704
REMARK INTRA:                  -0.785
REMARK UNBOUND:                -0.416
REMARK  Name = 
REMARK  7 active torsions:
REMARK  status: ('A' for Active; 'I' for Inactive)
REMARK    1  A    between atoms: C_1  and  O_2
REMARK    2  A    between atoms: O_2  and  C_3
REMARK    3  A    between atoms: C_6  and  C_7
REMARK    4  A    between atoms: C_7  and  C_9
REMARK    5  A    between atoms: C_10  and  C_11
REMARK    6  A    between atoms: C_14  and  O_15
REMARK    7  A    between atoms: C_18  and  O_19
REMARK                            x       y       z     vdW  Elec       q    Type
REMARK                         _______ _______ _______ _____ _____    ______ ____
ROOT
ATOM      1  C   UNL     1      33.599  22.495  67.285  0.00  0.00    +0.000 C 
ATOM      2  O   UNL     1      34.286  22.047  66.315  0.00  0.00    +0.000 OA
ENDROOT
BRANCH   1   6
ATOM      3  C   UNL     1      30.144  20.345  68.620  0.00  0.00    +0.000 A 
ATOM      4  C   UNL     1      31.084  20.776  69.525  0.00  0.00    +0.000 A 
ATOM      5  C   UNL     1      32.198  21.468  69.091  0.00  0.00    +0.000 A 
ATOM      6  C   UNL     1      32.365  21.744  67.755  0.00  0.00    +0.000 A 
ATOM      7  C   UNL     1      31.415  21.344  66.842  0.00  0.00    +0.000 A 
ATOM      8  C   UNL     1      30.275  20.641  67.247  0.00  0.00    +0.000 A 
BRANCH   3  10
ATOM      9  C   UNL     1      27.773  20.168  68.964  0.00  0.00    +0.000 C 
ATOM     10  O   UNL     1      29.089  19.649  69.100  0.00  0.00    +0.000 OA
ENDBRANCH   3  10
BRANCH   7  11
ATOM     11  O   UNL     1      31.596  21.647  65.467  0.00  0.00    +0.000 OA
ATOM     12  H   UNL     1      32.471  21.459  65.023  0.00  0.00    +0.000 HD
ENDBRANCH   7  11
ENDBRANCH   1   6
BRANCH   1  13
ATOM     13  C   UNL     1      34.012  23.785  67.976  0.00  0.00    +0.000 C 
ATOM     14  C   UNL     1      33.179  24.860  67.965  0.00  0.00    +0.000 C 
BRANCH  14  15
ATOM     15  C   UNL     1      33.591  26.149  68.656  0.00  0.00    +0.000 A 
ATOM     16  C   UNL     1      32.991  27.344  68.326  0.00  0.00    +0.000 A 
ATOM     17  C   UNL     1      33.327  28.528  68.990  0.00  0.00    +0.000 A 
ATOM     18  C   UNL     1      34.287  28.450  70.020  0.00  0.00    +0.000 A 
ATOM     19  C   UNL     1      34.901  27.256  70.320  0.00  0.00    +0.000 A 
ATOM     20  C   UNL     1      34.545  26.105  69.644  0.00  0.00    +0.000 A 
BRANCH  18  21
ATOM     21  O   UNL     1      34.657  29.538  70.733  0.00  0.00    +0.000 OA
ATOM     22  H   UNL     1      35.448  29.490  71.343  0.00  0.00    +0.000 HD
ENDBRANCH  18  21
ENDBRANCH  14  15
ENDBRANCH   1  13
TORSDOF 6
ENDMDL
MODEL 6
REMARK VINA RESULT:    -7.789      2.044      3.154
REMARK INTER + INTRA:         -10.483
REMARK INTER:                  -9.786
REMARK INTRA:                  -0.697
REMARK UNBOUND:                -0.416
REMARK  Name = 
REMARK  7 active torsions:
REMARK  status: ('A' for Active; 'I' for Inactive)
REMARK    1  A    between atoms: C_1  and  O_2
REMARK    2  A    between atoms: O_2  and  C_3
REMARK    3  A    between atoms: C_6  and  C_7
REMARK    4  A    between atoms: C_7  and  C_9
REMARK    5  A    between atoms: C_10  and  C_11
REMARK    6  A    between atoms: C_14  and  O_15
REMARK    7  A    between atoms: C_18  and  O_19
REMARK                            x       y       z     vdW  Elec       q    Type
REMARK                         _______ _______ _______ _____ _____    ______ ____
ROOT
ATOM      1  C   UNL     1      32.980  26.032  71.016  0.00  0.00    +0.000 C 
ATOM      2  O   UNL     1      32.319  25.623  72.021  0.00  0.00    +0.000 OA
ENDROOT
BRANCH   1   6
ATOM      3  C   UNL     1      33.577  23.440  67.659  0.00  0.00    +0.000 A 
ATOM      4  C   UNL     1      33.402  24.790  67.469  0.00  0.00    +0.000 A 
ATOM      5  C   UNL     1      33.208  25.623  68.554  0.00  0.00    +0.000 A 
ATOM      6  C   UNL     1      33.206  25.110  69.829  0.00  0.00    +0.000 A 
ATOM      7  C   UNL     1      33.411  23.764  70.034  0.00  0.00    +0.000 A 
ATOM      8  C   UNL     1      33.611  22.892  68.958  0.00  0.00    +0.000 A 
BRANCH   3  10
ATOM      9  C   UNL     1      34.726  21.652  66.538  0.00  0.00    +0.000 C 
ATOM     10  O   UNL     1      33.737  22.671  66.558  0.00  0.00    +0.000 OA
ENDBRANCH   3  10
BRANCH   7  11
ATOM     11  O   UNL     1      33.418  23.251  71.358  0.00  0.00    +0.000 OA
ATOM     12  H   UNL     1      32.630  22.743  71.703  0.00  0.00    +0.000 HD
ENDBRANCH   7  11
ENDBRANCH   1   6
BRANCH   1  13
ATOM     13  C   UNL     1      33.545  27.442  71.000  0.00  0.00    +0.000 C 
ATOM     14  C   UNL     1      34.891  27.636  71.028  0.00  0.00    +0.000 C 
BRANCH  14  15
ATOM     15  C   UNL     1      35.457  29.046  71.012  0.00  0.00    +0.000 A 
ATOM     16  C   UNL     1      35.286  29.857  69.910  0.00  0.00    +0.000 A 
ATOM     17  C   UNL     1      35.759  31.173  69.903  0.00  0.00    +0.000 A 
ATOM     18  C   UNL     1      36.400  31.644  71.068  0.00  0.00    +0.000 A 
ATOM     19  C   UNL     1      36.590  30.816  72.150  0.00  0.00    +0.000 A 
ATOM     20  C   UNL     1      36.110  29.521  72.124  0.00  0.00    +0.000 A 
BRANCH  18  21
ATOM     21  O   UNL     1      36.867  32.909  71.161  0.00  0.00    +0.000 OA
ATOM     22  H   UNL     1      36.638  33.580  70.455  0.00  0.00    +0.000 HD
ENDBRANCH  18  21
ENDBRANCH  14  15
ENDBRANCH   1  13
TORSDOF 6
ENDMDL
MODEL 7
REMARK VINA RESULT:    -7.780      3.228      8.801
REMARK INTER + INTRA:         -10.471
REMARK INTER:                  -9.689
REMARK INTRA:                  -0.782
REMARK UNBOUND:                -0.416
REMARK  Name = 
REMARK  7 active torsions:
REMARK  status: ('A' for Active; 'I' for Inactive)
REMARK    1  A    between atoms: C_1  and  O_2
REMARK    2  A    between atoms: O_2  and  C_3
REMARK    3  A    between atoms: C_6  and  C_7
REMARK    4  A    between atoms: C_7  and  C_9
REMARK    5  A    between atoms: C_10  and  C_11
REMARK    6  A    between atoms: C_14  and  O_15
REMARK    7  A    between atoms: C_18  and  O_19
REMARK                            x       y       z     vdW  Elec       q    Type
REMARK                         _______ _______ _______ _____ _____    ______ ____
ROOT
ATOM      1  C   UNL     1      31.763  24.730  72.351  0.00  0.00    +0.000 C 
ATOM      2  O   UNL     1      31.450  24.977  73.557  0.00  0.00    +0.000 OA
ENDROOT
BRANCH   1   6
ATOM      3  C   UNL     1      33.268  27.872  69.859  0.00  0.00    +0.000 A 
ATOM      4  C   UNL     1      33.909  26.657  69.904  0.00  0.00    +0.000 A 
ATOM      5  C   UNL     1      33.422  25.647  70.711  0.00  0.00    +0.000 A 
ATOM      6  C   UNL     1      32.285  25.844  71.457  0.00  0.00    +0.000 A 
ATOM      7  C   UNL     1      31.617  27.046  71.397  0.00  0.00    +0.000 A 
ATOM      8  C   UNL     1      32.082  28.090  70.591  0.00  0.00    +0.000 A 
BRANCH   3  10
ATOM      9  C   UNL     1      33.035  29.412  68.029  0.00  0.00    +0.000 C 
ATOM     10  O   UNL     1      33.805  28.832  69.072  0.00  0.00    +0.000 OA
ENDBRANCH   3  10
BRANCH   7  11
ATOM     11  O   UNL     1      30.437  27.229  72.165  0.00  0.00    +0.000 OA
ATOM     12  H   UNL     1      30.401  26.910  73.111  0.00  0.00    +0.000 HD
ENDBRANCH   7  11
ENDBRANCH   1   6
BRANCH   1  13
ATOM     13  C   UNL     1      31.616  23.321  71.800  0.00  0.00    +0.000 C 
ATOM     14  C   UNL     1      30.742  23.075  70.788  0.00  0.00    +0.000 C 
BRANCH  14  15
ATOM     15  C   UNL     1      30.595  21.666  70.237  0.00  0.00    +0.000 A 
ATOM     16  C   UNL     1      29.462  21.300  69.542  0.00  0.00    +0.000 A 
ATOM     17  C   UNL     1      29.336  20.022  68.988  0.00  0.00    +0.000 A 
ATOM     18  C   UNL     1      30.418  19.131  69.150  0.00  0.00    +0.000 A 
ATOM     19  C   UNL     1      31.531  19.498  69.870  0.00  0.00    +0.000 A 
ATOM     20  C   UNL     1      31.622  20.769  70.404  0.00  0.00    +0.000 A 
BRANCH  18  21
ATOM     21  O   UNL     1      30.396  17.883  68.628  0.00  0.00    +0.000 OA
ATOM     22  H   UNL     1      30.447  17.088  69.233  0.00  0.00    +0.000 HD
ENDBRANCH  18  21
ENDBRANCH  14  15
ENDBRANCH   1  13
TORSDOF 6
ENDMDL
MODEL 8
REMARK VINA RESULT:    -7.776      2.841      3.852
REMARK INTER + INTRA:         -10.465
REMARK INTER:                  -9.799
REMARK INTRA:                  -0.666
REMARK UNBOUND:                -0.416
REMARK  Name = 
REMARK  7 active torsions:
REMARK  status: ('A' for Active; 'I' for Inactive)
REMARK    1  A    between atoms: C_1  and  O_2
REMARK    2  A    between atoms: O_2  and  C_3
REMARK    3  A    between atoms: C_6  and  C_7
REMARK    4  A    between atoms: C_7  and  C_9
REMARK    5  A    between atoms: C_10  and  C_11
REMARK    6  A    between atoms: C_14  and  O_15
REMARK    7  A    between atoms: C_18  and  O_19
REMARK                            x       y       z     vdW  Elec       q    Type
REMARK                         _______ _______ _______ _____ _____    ______ ____
ROOT
ATOM      1  C   UNL     1      34.249  24.017  67.949  0.00  0.00    +0.000 C 
ATOM      2  O   UNL     1      34.955  23.872  66.902  0.00  0.00    +0.000 OA
ENDROOT
BRANCH   1   6
ATOM      3  C   UNL     1      31.905  20.747  69.415  0.00  0.00    +0.000 A 
ATOM      4  C   UNL     1      32.512  21.612  70.294  0.00  0.00    +0.000 A 
ATOM      5  C   UNL     1      33.269  22.665  69.817  0.00  0.00    +0.000 A 
ATOM      6  C   UNL     1      33.405  22.864  68.464  0.00  0.00    +0.000 A 
ATOM      7  C   UNL     1      32.777  22.021  67.574  0.00  0.00    +0.000 A 
ATOM      8  C   UNL     1      32.003  20.945  68.022  0.00  0.00    +0.000 A 
BRANCH   3  10
ATOM      9  C   UNL     1      31.440  18.391  69.498  0.00  0.00    +0.000 C 
ATOM     10  O   UNL     1      31.199  19.719  69.939  0.00  0.00    +0.000 OA
ENDBRANCH   3  10
BRANCH   7  11
ATOM     11  O   UNL     1      32.917  22.247  66.179  0.00  0.00    +0.000 OA
ATOM     12  H   UNL     1      32.267  21.840  65.538  0.00  0.00    +0.000 HD
ENDBRANCH   7  11
ENDBRANCH   1   6
BRANCH   1  13
ATOM     13  C   UNL     1      34.249  25.347  68.686  0.00  0.00    +0.000 C 
ATOM     14  C   UNL     1      35.262  25.650  69.541  0.00  0.00    +0.000 C 
BRANCH  14  15
ATOM     15  C   UNL     1      35.262  26.980  70.278  0.00  0.00    +0.000 A 
ATOM     16  C   UNL     1      36.434  27.682  70.457  0.00  0.00    +0.000 A 
ATOM     17  C   UNL     1      36.440  28.929  71.089  0.00  0.00    +0.000 A 
ATOM     18  C   UNL     1      35.201  29.448  71.519  0.00  0.00    +0.000 A 
ATOM     19  C   UNL     1      34.041  28.725  71.361  0.00  0.00    +0.000 A 
ATOM     20  C   UNL     1      34.072  27.496  70.732  0.00  0.00    +0.000 A 
BRANCH  18  21
ATOM     21  O   UNL     1      35.105  30.657  72.118  0.00  0.00    +0.000 OA
ATOM     22  H   UNL     1      35.302  31.489  71.598  0.00  0.00    +0.000 HD
ENDBRANCH  18  21
ENDBRANCH  14  15
ENDBRANCH   1  13
TORSDOF 6
ENDMDL
MODEL 9
REMARK VINA RESULT:    -7.728      4.990      8.197
REMARK INTER + INTRA:         -10.403
REMARK INTER:                  -9.987
REMARK INTRA:                  -0.416
REMARK UNBOUND:                -0.416
REMARK  Name = 
REMARK  7 active torsions:
REMARK  status: ('A' for Active; 'I' for Inactive)
REMARK    1  A    between atoms: C_1  and  O_2
REMARK    2  A    between atoms: O_2  and  C_3
REMARK    3  A    between atoms: C_6  and  C_7
REMARK    4  A    between atoms: C_7  and  C_9
REMARK    5  A    between atoms: C_10  and  C_11
REMARK    6  A    between atoms: C_14  and  O_15
REMARK    7  A    between atoms: C_18  and  O_19
REMARK                            x       y       z     vdW  Elec       q    Type
REMARK                         _______ _______ _______ _____ _____    ______ ____
ROOT
ATOM      1  C   UNL     1      32.256  20.177  71.511  0.00  0.00    +0.000 C 
ATOM      2  O   UNL     1      32.703  20.004  72.687  0.00  0.00    +0.000 OA
ENDROOT
BRANCH   1   6
ATOM      3  C   UNL     1      31.268  16.808  69.058  0.00  0.00    +0.000 A 
ATOM      4  C   UNL     1      31.295  18.072  68.519  0.00  0.00    +0.000 A 
ATOM      5  C   UNL     1      31.612  19.157  69.314  0.00  0.00    +0.000 A 
ATOM      6  C   UNL     1      31.919  18.976  70.641  0.00  0.00    +0.000 A 
ATOM      7  C   UNL     1      31.925  17.711  71.185  0.00  0.00    +0.000 A 
ATOM      8  C   UNL     1      31.609  16.591  70.409  0.00  0.00    +0.000 A 
BRANCH   3  10
ATOM      9  C   UNL     1      31.232  14.450  68.600  0.00  0.00    +0.000 C 
ATOM     10  O   UNL     1      30.925  15.788  68.238  0.00  0.00    +0.000 OA
ENDBRANCH   3  10
BRANCH   7  11
ATOM     11  O   UNL     1      32.256  17.540  72.555  0.00  0.00    +0.000 OA
ATOM     12  H   UNL     1      32.877  16.808  72.832  0.00  0.00    +0.000 HD
ENDBRANCH   7  11
ENDBRANCH   1   6
BRANCH   1  13
ATOM     13  C   UNL     1      32.058  21.584  70.971  0.00  0.00    +0.000 C 
ATOM     14  C   UNL     1      31.120  22.399  71.525  0.00  0.00    +0.000 C 
BRANCH  14  15
ATOM     15  C   UNL     1      30.922  23.806  70.987  0.00  0.00    +0.000 A 
ATOM     16  C   UNL     1      31.190  24.903  71.777  0.00  0.00    +0.000 A 
ATOM     17  C   UNL     1      31.060  26.202  71.277  0.00  0.00    +0.000 A 
ATOM     18  C   UNL     1      30.662  26.347  69.931  0.00  0.00    +0.000 A 
ATOM     19  C   UNL     1      30.370  25.246  69.161  0.00  0.00    +0.000 A 
ATOM     20  C   UNL     1      30.510  23.976  69.687  0.00  0.00    +0.000 A 
BRANCH  18  21
ATOM     21  O   UNL     1      30.533  27.564  69.355  0.00  0.00    +0.000 OA
ATOM     22  H   UNL     1      29.623  27.937  69.174  0.00  0.00    +0.000 HD
ENDBRANCH  18  21
ENDBRANCH  14  15
ENDBRANCH   1  13
TORSDOF 6
ENDMDL
