MODEL 1
REMARK VINA RESULT:    -7.582      0.000      0.000
REMARK INTER + INTRA:         -10.581
REMARK INTER:                  -9.861
REMARK INTRA:                  -0.720
REMARK UNBOUND:                -0.783
REMARK  Name = 
REMARK  7 active torsions:
REMARK  status: ('A' for Active; 'I' for Inactive)
REMARK    1  A    between atoms: C_1  and  O_2
REMARK    2  A    between atoms: O_2  and  C_3
REMARK    3  A    between atoms: C_6  and  C_7
REMARK    4  A    between atoms: C_8  and  C_9
REMARK    5  A    between atoms: C_9  and  C_11
REMARK    6  A    between atoms: C_14  and  O_15
REMARK    7  A    between atoms: C_17  and  O_18
REMARK                            x       y       z     vdW  Elec       q    Type
REMARK                         _______ _______ _______ _____ _____    ______ ____
ROOT
ATOM      1  C   UNL     1      33.437  22.851  67.401  0.00  0.00    +0.000 C 
ATOM      2  O   UNL     1      34.274  22.492  66.515  0.00  0.00    +0.000 OA
ENDROOT
BRANCH   1   3
ATOM      3  C   UNL     1      32.042  22.246  67.419  0.00  0.00    +0.000 A 
ATOM      4  C   UNL     1      30.967  23.011  66.999  0.00  0.00    +0.000 A 
ATOM      5  C   UNL     1      29.706  22.463  67.334  0.00  0.00    +0.000 A 
ATOM      6  C   UNL     1      29.506  21.204  67.679  0.00  0.00    +0.000 A 
ATOM      7  C   UNL     1      30.616  20.480  68.018  0.00  0.00    +0.000 A 
ATOM      8  C   UNL     1      31.876  20.998  67.841  0.00  0.00    +0.000 A 
BRANCH   6   9
ATOM      9  O   UNL     1      28.206  20.631  67.696  0.00  0.00    +0.000 OA
ATOM     10  H   UNL     1      27.402  21.211  67.571  0.00  0.00    +0.000 HD
ENDBRANCH   6   9
BRANCH   8  11
ATOM     11  O   UNL     1      33.012  20.190  68.112  0.00  0.00    +0.000 OA
ATOM     12  H   UNL     1      33.905  20.616  68.261  0.00  0.00    +0.000 HD
ENDBRANCH   8  11
ENDBRANCH   1   3
BRANCH   1  14
ATOM     13  C   UNL     1      33.695  25.210  68.174  0.00  0.00    +0.000 C 
ATOM     14  C   UNL     1      33.829  23.884  68.445  0.00  0.00    +0.000 C 
BRANCH  13  18
ATOM     15  C   UNL     1      34.876  28.252  70.930  0.00  0.00    +0.000 A 
ATOM     16  C   UNL     1      33.636  28.351  70.320  0.00  0.00    +0.000 A 
ATOM     17  C   UNL     1      33.255  27.193  69.603  0.00  0.00    +0.000 A 
ATOM     18  C   UNL     1      34.087  26.243  69.217  0.00  0.00    +0.000 A 
ATOM     19  C   UNL     1      35.321  26.239  69.807  0.00  0.00    +0.000 A 
ATOM     20  C   UNL     1      35.716  27.271  70.624  0.00  0.00    +0.000 A 
BRANCH  15  22
ATOM     21  C   UNL     1      36.520  29.761  71.963  0.00  0.00    +0.000 C 
ATOM     22  O   UNL     1      35.230  29.168  71.955  0.00  0.00    +0.000 OA
ENDBRANCH  15  22
ENDBRANCH  13  18
ENDBRANCH   1  14
TORSDOF 6
ENDMDL
MODEL 2
REMARK VINA RESULT:    -7.528      2.646      7.982
REMARK INTER + INTRA:         -10.512
REMARK INTER:                  -9.812
REMARK INTRA:                  -0.700
REMARK UNBOUND:                -0.783
REMARK  Name = 
REMARK  7 active torsions:
REMARK  status: ('A' for Active; 'I' for Inactive)
REMARK    1  A    between atoms: C_1  and  O_2
REMARK    2  A    between atoms: O_2  and  C_3
REMARK    3  A    between atoms: C_6  and  C_7
REMARK    4  A    between atoms: C_8  and  C_9
REMARK    5  A    between atoms: C_9  and  C_11
REMARK    6  A    between atoms: C_14  and  O_15
REMARK    7  A    between atoms: C_17  and  O_18
REMARK                            x       y       z     vdW  Elec       q    Type
REMARK                         _______ _______ _______ _____ _____    ______ ____
ROOT
ATOM      1  C   UNL     1      33.658  23.854  68.543  0.00  0.00    +0.000 C 
ATOM      2  O   UNL     1      33.757  24.008  67.285  0.00  0.00    +0.000 OA
ENDROOT
BRANCH   1   3
ATOM      3  C   UNL     1      33.799  25.053  69.468  0.00  0.00    +0.000 A 
ATOM      4  C   UNL     1      32.684  25.522  70.142  0.00  0.00    +0.000 A 
ATOM      5  C   UNL     1      32.862  26.798  70.728  0.00  0.00    +0.000 A 
ATOM      6  C   UNL     1      34.036  27.361  70.952  0.00  0.00    +0.000 A 
ATOM      7  C   UNL     1      35.109  26.809  70.309  0.00  0.00    +0.000 A 
ATOM      8  C   UNL     1      34.985  25.634  69.609  0.00  0.00    +0.000 A 
BRANCH   6   9
ATOM      9  O   UNL     1      34.176  28.479  71.816  0.00  0.00    +0.000 OA
ATOM     10  H   UNL     1      34.535  29.343  71.462  0.00  0.00    +0.000 HD
ENDBRANCH   6   9
BRANCH   8  11
ATOM     11  O   UNL     1      36.135  25.033  69.032  0.00  0.00    +0.000 OA
ATOM     12  H   UNL     1      36.807  24.577  69.614  0.00  0.00    +0.000 HD
ENDBRANCH   8  11
ENDBRANCH   1   3
BRANCH   1  14
ATOM     13  C   UNL     1      32.168  21.909  69.011  0.00  0.00    +0.000 C 
ATOM     14  C   UNL     1      33.400  22.474  69.123  0.00  0.00    +0.000 C 
BRANCH  13  18
ATOM     15  C   UNL     1      31.670  17.977  70.606  0.00  0.00    +0.000 A 
ATOM     16  C   UNL     1      32.135  18.980  71.441  0.00  0.00    +0.000 A 
ATOM     17  C   UNL     1      32.055  20.276  70.880  0.00  0.00    +0.000 A 
ATOM     18  C   UNL     1      31.909  20.528  69.592  0.00  0.00    +0.000 A 
ATOM     19  C   UNL     1      31.513  19.480  68.809  0.00  0.00    +0.000 A 
ATOM     20  C   UNL     1      31.441  18.205  69.318  0.00  0.00    +0.000 A 
BRANCH  15  22
ATOM     21  C   UNL     1      30.182  16.024  70.732  0.00  0.00    +0.000 C 
ATOM     22  O   UNL     1      31.358  16.702  71.146  0.00  0.00    +0.000 OA
ENDBRANCH  15  22
ENDBRANCH  13  18
ENDBRANCH   1  14
TORSDOF 6
ENDMDL
MODEL 3
REMARK VINA RESULT:    -7.514      3.121      8.041
REMARK INTER + INTRA:         -10.494
REMARK INTER:                  -9.827
REMARK INTRA:                  -0.666
REMARK UNBOUND:                -0.783
REMARK  Name = 
REMARK  7 active torsions:
REMARK  status: ('A' for Active; 'I' for Inactive)
REMARK    1  A    between atoms: C_1  and  O_2
REMARK    2  A    between atoms: O_2  and  C_3
REMARK    3  A    between atoms: C_6  and  C_7
REMARK    4  A    between atoms: C_8  and  C_9
REMARK    5  A    between atoms: C_9  and  C_11
REMARK    6  A    between atoms: C_14  and  O_15
REMARK    7  A    between atoms: C_17  and  O_18
REMARK                            x       y       z     vdW  Elec       q    Type
REMARK                         _______ _______ _______ _____ _____    ______ ____
ROOT
ATOM      1  C   UNL     1      31.256  24.986  71.305  0.00  0.00    +0.000 C 
ATOM      2  O   UNL     1      30.837  25.046  72.504  0.00  0.00    +0.000 OA
ENDROOT
BRANCH   1   3
ATOM      3  C   UNL     1      31.655  26.259  70.575  0.00  0.00    +0.000 A 
ATOM      4  C   UNL     1      30.874  26.709  69.523  0.00  0.00    +0.000 A 
ATOM      5  C   UNL     1      31.491  27.713  68.739  0.00  0.00    +0.000 A 
ATOM      6  C   UNL     1      32.528  28.433  69.126  0.00  0.00    +0.000 A 
ATOM      7  C   UNL     1      33.218  27.972  70.213  0.00  0.00    +0.000 A 
ATOM      8  C   UNL     1      32.747  26.914  70.952  0.00  0.00    +0.000 A 
BRANCH   6   9
ATOM      9  O   UNL     1      32.905  29.623  68.451  0.00  0.00    +0.000 OA
ATOM     10  H   UNL     1      33.848  29.745  68.139  0.00  0.00    +0.000 HD
ENDBRANCH   6   9
BRANCH   8  11
ATOM     11  O   UNL     1      33.433  26.517  72.130  0.00  0.00    +0.000 OA
ATOM     12  H   UNL     1      34.406  26.291  72.091  0.00  0.00    +0.000 HD
ENDBRANCH   8  11
ENDBRANCH   1   3
BRANCH   1  14
ATOM     13  C   UNL     1      31.558  22.509  71.326  0.00  0.00    +0.000 C 
ATOM     14  C   UNL     1      31.360  23.643  70.602  0.00  0.00    +0.000 C 
BRANCH  13  18
ATOM     15  C   UNL     1      31.624  18.690  69.414  0.00  0.00    +0.000 A 
ATOM     16  C   UNL     1      31.106  19.772  68.721  0.00  0.00    +0.000 A 
ATOM     17  C   UNL     1      31.331  21.018  69.353  0.00  0.00    +0.000 A 
ATOM     18  C   UNL     1      31.661  21.166  70.623  0.00  0.00    +0.000 A 
ATOM     19  C   UNL     1      32.102  20.045  71.270  0.00  0.00    +0.000 A 
ATOM     20  C   UNL     1      32.035  18.810  70.670  0.00  0.00    +0.000 A 
BRANCH  15  22
ATOM     21  C   UNL     1      32.029  16.266  69.503  0.00  0.00    +0.000 C 
ATOM     22  O   UNL     1      31.791  17.446  68.750  0.00  0.00    +0.000 OA
ENDBRANCH  15  22
ENDBRANCH  13  18
ENDBRANCH   1  14
TORSDOF 6
ENDMDL
MODEL 4
REMARK VINA RESULT:    -7.428      2.583      3.244
REMARK INTER + INTRA:         -10.383
REMARK INTER:                  -9.705
REMARK INTRA:                  -0.677
REMARK UNBOUND:                -0.783
REMARK  Name = 
REMARK  7 active torsions:
REMARK  status: ('A' for Active; 'I' for Inactive)
REMARK    1  A    between atoms: C_1  and  O_2
REMARK    2  A    between atoms: O_2  and  C_3
REMARK    3  A    between atoms: C_6  and  C_7
REMARK    4  A    between atoms: C_8  and  C_9
REMARK    5  A    between atoms: C_9  and  C_11
REMARK    6  A    between atoms: C_14  and  O_15
REMARK    7  A    between atoms: C_17  and  O_18
REMARK                            x       y       z     vdW  Elec       q    Type
REMARK                         _______ _______ _______ _____ _____    ______ ____
ROOT
ATOM      1  C   UNL     1      31.760  22.669  71.508  0.00  0.00    +0.000 C 
ATOM      2  O   UNL     1      30.825  22.812  72.358  0.00  0.00    +0.000 OA
ENDROOT
BRANCH   1   3
ATOM      3  C   UNL     1      31.793  21.439  70.615  0.00  0.00    +0.000 A 
ATOM      4  C   UNL     1      31.446  21.562  69.280  0.00  0.00    +0.000 A 
ATOM      5  C   UNL     1      31.225  20.326  68.627  0.00  0.00    +0.000 A 
ATOM      6  C   UNL     1      31.640  19.157  69.080  0.00  0.00    +0.000 A 
ATOM      7  C   UNL     1      32.034  19.115  70.389  0.00  0.00    +0.000 A 
ATOM      8  C   UNL     1      32.148  20.267  71.129  0.00  0.00    +0.000 A 
BRANCH   6   9
ATOM      9  O   UNL     1      31.676  18.005  68.251  0.00  0.00    +0.000 OA
ATOM     10  H   UNL     1      32.252  17.994  67.434  0.00  0.00    +0.000 HD
ENDBRANCH   6   9
BRANCH   8  11
ATOM     11  O   UNL     1      32.651  20.205  72.455  0.00  0.00    +0.000 OA
ATOM     12  H   UNL     1      32.227  20.751  73.177  0.00  0.00    +0.000 HD
ENDBRANCH   8  11
ENDBRANCH   1   3
BRANCH   1  14
ATOM     13  C   UNL     1      32.646  24.815  70.595  0.00  0.00    +0.000 C 
ATOM     14  C   UNL     1      32.845  23.726  71.385  0.00  0.00    +0.000 C 
BRANCH  13  18
ATOM     15  C   UNL     1      35.788  27.706  70.451  0.00  0.00    +0.000 A 
ATOM     16  C   UNL     1      36.028  26.437  69.950  0.00  0.00    +0.000 A 
ATOM     17  C   UNL     1      34.869  25.633  69.845  0.00  0.00    +0.000 A 
ATOM     18  C   UNL     1      33.731  25.873  70.471  0.00  0.00    +0.000 A 
ATOM     19  C   UNL     1      33.581  27.124  71.002  0.00  0.00    +0.000 A 
ATOM     20  C   UNL     1      34.631  28.011  71.025  0.00  0.00    +0.000 A 
BRANCH  15  22
ATOM     21  C   UNL     1      36.792  29.833  71.168  0.00  0.00    +0.000 C 
ATOM     22  O   UNL     1      36.764  28.723  70.282  0.00  0.00    +0.000 OA
ENDBRANCH  15  22
ENDBRANCH  13  18
ENDBRANCH   1  14
TORSDOF 6
ENDMDL
MODEL 5
REMARK VINA RESULT:    -7.402      1.660      2.357
REMARK INTER + INTRA:         -10.348
REMARK INTER:                  -9.651
REMARK INTRA:                  -0.697
REMARK UNBOUND:                -0.783
REMARK  Name = 
REMARK  7 active torsions:
REMARK  status: ('A' for Active; 'I' for Inactive)
REMARK    1  A    between atoms: C_1  and  O_2
REMARK    2  A    between atoms: O_2  and  C_3
REMARK    3  A    between atoms: C_6  and  C_7
REMARK    4  A    between atoms: C_8  and  C_9
REMARK    5  A    between atoms: C_9  and  C_11
REMARK    6  A    between atoms: C_14  and  O_15
REMARK    7  A    between atoms: C_17  and  O_18
REMARK                            x       y       z     vdW  Elec       q    Type
REMARK                         _______ _______ _______ _____ _____    ______ ____
ROOT
ATOM      1  C   UNL     1      34.258  24.147  68.031  0.00  0.00    +0.000 C 
ATOM      2  O   UNL     1      34.948  23.995  66.975  0.00  0.00    +0.000 OA
ENDROOT
BRANCH   1   3
ATOM      3  C   UNL     1      33.346  23.029  68.511  0.00  0.00    +0.000 A 
ATOM      4  C   UNL     1      33.265  22.756  69.866  0.00  0.00    +0.000 A 
ATOM      5  C   UNL     1      32.632  21.527  70.167  0.00  0.00    +0.000 A 
ATOM      6  C   UNL     1      31.867  20.854  69.327  0.00  0.00    +0.000 A 
ATOM      7  C   UNL     1      31.941  21.216  68.010  0.00  0.00    +0.000 A 
ATOM      8  C   UNL     1      32.647  22.330  67.624  0.00  0.00    +0.000 A 
BRANCH   6   9
ATOM      9  O   UNL     1      31.011  19.810  69.767  0.00  0.00    +0.000 OA
ATOM     10  H   UNL     1      30.662  19.139  69.113  0.00  0.00    +0.000 HD
ENDBRANCH   6   9
BRANCH   8  11
ATOM     11  O   UNL     1      32.629  22.738  66.264  0.00  0.00    +0.000 OA
ATOM     12  H   UNL     1      32.660  22.054  65.536  0.00  0.00    +0.000 HD
ENDBRANCH   8  11
ENDBRANCH   1   3
BRANCH   1  14
ATOM     13  C   UNL     1      35.472  25.745  69.515  0.00  0.00    +0.000 C 
ATOM     14  C   UNL     1      34.345  25.446  68.816  0.00  0.00    +0.000 C 
BRANCH  13  18
ATOM     15  C   UNL     1      35.661  29.511  71.520  0.00  0.00    +0.000 A 
ATOM     16  C   UNL     1      34.428  28.897  71.374  0.00  0.00    +0.000 A 
ATOM     17  C   UNL     1      34.504  27.567  70.898  0.00  0.00    +0.000 A 
ATOM     18  C   UNL     1      35.558  27.043  70.300  0.00  0.00    +0.000 A 
ATOM     19  C   UNL     1      36.732  27.733  70.425  0.00  0.00    +0.000 A 
ATOM     20  C   UNL     1      36.760  28.983  70.997  0.00  0.00    +0.000 A 
BRANCH  15  22
ATOM     21  C   UNL     1      36.886  31.549  72.146  0.00  0.00    +0.000 C 
ATOM     22  O   UNL     1      35.769  30.688  72.308  0.00  0.00    +0.000 OA
ENDBRANCH  15  22
ENDBRANCH  13  18
ENDBRANCH   1  14
TORSDOF 6
ENDMDL
MODEL 6
REMARK VINA RESULT:    -7.207      2.787      4.262
REMARK INTER + INTRA:         -10.097
REMARK INTER:                  -9.804
REMARK INTRA:                  -0.293
REMARK UNBOUND:                -0.783
REMARK  Name = 
REMARK  7 active torsions:
REMARK  status: ('A' for Active; 'I' for Inactive)
REMARK    1  A    between atoms: C_1  and  O_2
REMARK    2  A    between atoms: O_2  and  C_3
REMARK    3  A    between atoms: C_6  and  C_7
REMARK    4  A    between atoms: C_8  and  C_9
REMARK    5  A    between atoms: C_9  and  C_11
REMARK    6  A    between atoms: C_14  and  O_15
REMARK    7  A    between atoms: C_17  and  O_18
REMARK                            x       y       z     vdW  Elec       q    Type
REMARK                         _______ _______ _______ _____ _____    ______ ____
ROOT
ATOM      1  C   UNL     1      31.008  20.824  68.019  0.00  0.00    +0.000 C 
ATOM      2  O   UNL     1      30.642  20.434  66.866  0.00  0.00    +0.000 OA
ENDROOT
BRANCH   1   3
ATOM      3  C   UNL     1      31.301  19.805  69.109  0.00  0.00    +0.000 A 
ATOM      4  C   UNL     1      31.472  20.239  70.413  0.00  0.00    +0.000 A 
ATOM      5  C   UNL     1      32.027  19.263  71.275  0.00  0.00    +0.000 A 
ATOM      6  C   UNL     1      32.057  17.968  71.017  0.00  0.00    +0.000 A 
ATOM      7  C   UNL     1      31.812  17.598  69.723  0.00  0.00    +0.000 A 
ATOM      8  C   UNL     1      31.393  18.519  68.794  0.00  0.00    +0.000 A 
BRANCH   6   9
ATOM      9  O   UNL     1      32.327  17.010  72.030  0.00  0.00    +0.000 OA
ATOM     10  H   UNL     1      33.185  16.497  72.017  0.00  0.00    +0.000 HD
ENDBRANCH   6   9
BRANCH   8  11
ATOM     11  O   UNL     1      31.055  18.091  67.482  0.00  0.00    +0.000 OA
ATOM     12  H   UNL     1      30.405  17.343  67.352  0.00  0.00    +0.000 HD
ENDBRANCH   8  11
ENDBRANCH   1   3
BRANCH   1  14
ATOM     13  C   UNL     1      31.638  23.145  67.352  0.00  0.00    +0.000 C 
ATOM     14  C   UNL     1      31.154  22.309  68.309  0.00  0.00    +0.000 C 
BRANCH  13  18
ATOM     15  C   UNL     1      32.058  27.265  68.399  0.00  0.00    +0.000 A 
ATOM     16  C   UNL     1      33.200  26.490  68.273  0.00  0.00    +0.000 A 
ATOM     17  C   UNL     1      32.967  25.212  67.715  0.00  0.00    +0.000 A 
ATOM     18  C   UNL     1      31.784  24.630  67.642  0.00  0.00    +0.000 A 
ATOM     19  C   UNL     1      30.697  25.435  67.841  0.00  0.00    +0.000 A 
ATOM     20  C   UNL     1      30.849  26.735  68.262  0.00  0.00    +0.000 A 
BRANCH  15  22
ATOM     21  C   UNL     1      32.744  29.483  67.588  0.00  0.00    +0.000 C 
ATOM     22  O   UNL     1      32.178  28.665  68.601  0.00  0.00    +0.000 OA
ENDBRANCH  15  22
ENDBRANCH  13  18
ENDBRANCH   1  14
TORSDOF 6
ENDMDL
MODEL 7
REMARK VINA RESULT:    -7.145      3.544      8.544
REMARK INTER + INTRA:         -10.016
REMARK INTER:                  -9.238
REMARK INTRA:                  -0.778
REMARK UNBOUND:                -0.783
REMARK  Name = 
REMARK  7 active torsions:
REMARK  status: ('A' for Active; 'I' for Inactive)
REMARK    1  A    between atoms: C_1  and  O_2
REMARK    2  A    between atoms: O_2  and  C_3
REMARK    3  A    between atoms: C_6  and  C_7
REMARK    4  A    between atoms: C_8  and  C_9
REMARK    5  A    between atoms: C_9  and  C_11
REMARK    6  A    between atoms: C_14  and  O_15
REMARK    7  A    between atoms: C_17  and  O_18
REMARK                            x       y       z     vdW  Elec       q    Type
REMARK                         _______ _______ _______ _____ _____    ______ ____
ROOT
ATOM      1  C   UNL     1      31.535  22.090  70.884  0.00  0.00    +0.000 C 
ATOM      2  O   UNL     1      32.110  21.125  71.479  0.00  0.00    +0.000 OA
ENDROOT
BRANCH   1   3
ATOM      3  C   UNL     1      32.049  23.510  71.067  0.00  0.00    +0.000 A 
ATOM      4  C   UNL     1      32.614  24.169  69.988  0.00  0.00    +0.000 A 
ATOM      5  C   UNL     1      33.316  25.346  70.339  0.00  0.00    +0.000 A 
ATOM      6  C   UNL     1      33.176  25.987  71.485  0.00  0.00    +0.000 A 
ATOM      7  C   UNL     1      32.549  25.307  72.492  0.00  0.00    +0.000 A 
ATOM      8  C   UNL     1      31.953  24.091  72.257  0.00  0.00    +0.000 A 
BRANCH   6   9
ATOM      9  O   UNL     1      33.651  27.314  71.663  0.00  0.00    +0.000 OA
ATOM     10  H   UNL     1      34.108  27.572  72.514  0.00  0.00    +0.000 HD
ENDBRANCH   6   9
BRANCH   8  11
ATOM     11  O   UNL     1      31.227  23.451  73.296  0.00  0.00    +0.000 OA
ATOM     12  H   UNL     1      30.227  23.460  73.286  0.00  0.00    +0.000 HD
ENDBRANCH   8  11
ENDBRANCH   1   3
BRANCH   1  14
ATOM     13  C   UNL     1      29.115  22.326  70.324  0.00  0.00    +0.000 C 
ATOM     14  C   UNL     1      30.335  21.826  69.990  0.00  0.00    +0.000 C 
BRANCH  13  18
ATOM     15  C   UNL     1      25.604  21.683  67.978  0.00  0.00    +0.000 A 
ATOM     16  C   UNL     1      26.234  22.915  67.909  0.00  0.00    +0.000 A 
ATOM     17  C   UNL     1      27.496  22.949  68.546  0.00  0.00    +0.000 A 
ATOM     18  C   UNL     1      27.915  22.062  69.430  0.00  0.00    +0.000 A 
ATOM     19  C   UNL     1      27.209  20.892  69.497  0.00  0.00    +0.000 A 
ATOM     20  C   UNL     1      26.034  20.735  68.801  0.00  0.00    +0.000 A 
BRANCH  15  22
ATOM     21  C   UNL     1      23.494  20.510  67.510  0.00  0.00    +0.000 C 
ATOM     22  O   UNL     1      24.524  21.396  67.101  0.00  0.00    +0.000 OA
ENDBRANCH  15  22
ENDBRANCH  13  18
ENDBRANCH   1  14
TORSDOF 6
ENDMDL
MODEL 8
REMARK VINA RESULT:    -7.095      1.688      7.756
REMARK INTER + INTRA:          -9.952
REMARK INTER:                  -9.239
REMARK INTRA:                  -0.713
REMARK UNBOUND:                -0.783
REMARK  Name = 
REMARK  7 active torsions:
REMARK  status: ('A' for Active; 'I' for Inactive)
REMARK    1  A    between atoms: C_1  and  O_2
REMARK    2  A    between atoms: O_2  and  C_3
REMARK    3  A    between atoms: C_6  and  C_7
REMARK    4  A    between atoms: C_8  and  C_9
REMARK    5  A    between atoms: C_9  and  C_11
REMARK    6  A    between atoms: C_14  and  O_15
REMARK    7  A    between atoms: C_17  and  O_18
REMARK                            x       y       z     vdW  Elec       q    Type
REMARK                         _______ _______ _______ _____ _____    ______ ____
ROOT
ATOM      1  C   UNL     1      33.918  24.904  68.335  0.00  0.00    +0.000 C 
ATOM      2  O   UNL     1      34.686  24.715  67.340  0.00  0.00    +0.000 OA
ENDROOT
BRANCH   1   3
ATOM      3  C   UNL     1      34.215  26.021  69.324  0.00  0.00    +0.000 A 
ATOM      4  C   UNL     1      33.207  26.905  69.669  0.00  0.00    +0.000 A 
ATOM      5  C   UNL     1      33.663  28.059  70.348  0.00  0.00    +0.000 A 
ATOM      6  C   UNL     1      34.843  28.166  70.933  0.00  0.00    +0.000 A 
ATOM      7  C   UNL     1      35.775  27.222  70.601  0.00  0.00    +0.000 A 
ATOM      8  C   UNL     1      35.436  26.134  69.834  0.00  0.00    +0.000 A 
BRANCH   6   9
ATOM      9  O   UNL     1      35.127  29.205  71.858  0.00  0.00    +0.000 OA
ATOM     10  H   UNL     1      34.742  30.117  71.720  0.00  0.00    +0.000 HD
ENDBRANCH   6   9
BRANCH   8  11
ATOM     11  O   UNL     1      36.399  25.121  69.585  0.00  0.00    +0.000 OA
ATOM     12  H   UNL     1      36.154  24.159  69.700  0.00  0.00    +0.000 HD
ENDBRANCH   8  11
ENDBRANCH   1   3
BRANCH   1  14
ATOM     13  C   UNL     1      31.673  24.055  67.649  0.00  0.00    +0.000 C 
ATOM     14  C   UNL     1      32.702  24.014  68.538  0.00  0.00    +0.000 C 
BRANCH  13  18
ATOM     15  C   UNL     1      28.373  21.449  68.397  0.00  0.00    +0.000 A 
ATOM     16  C   UNL     1      28.491  22.606  69.150  0.00  0.00    +0.000 A 
ATOM     17  C   UNL     1      29.483  23.498  68.678  0.00  0.00    +0.000 A 
ATOM     18  C   UNL     1      30.458  23.166  67.852  0.00  0.00    +0.000 A 
ATOM     19  C   UNL     1      30.315  21.979  67.189  0.00  0.00    +0.000 A 
ATOM     20  C   UNL     1      29.295  21.112  67.503  0.00  0.00    +0.000 A 
BRANCH  15  22
ATOM     21  C   UNL     1      25.927  21.248  68.543  0.00  0.00    +0.000 C 
ATOM     22  O   UNL     1      27.211  20.643  68.525  0.00  0.00    +0.000 OA
ENDBRANCH  15  22
ENDBRANCH  13  18
ENDBRANCH   1  14
TORSDOF 6
ENDMDL
MODEL 9
REMARK VINA RESULT:    -7.093      4.994      8.234
REMARK INTER + INTRA:          -9.950
REMARK INTER:                  -9.167
REMARK INTRA:                  -0.783
REMARK UNBOUND:                -0.783
REMARK  Name = 
REMARK  7 active torsions:
REMARK  status: ('A' for Active; 'I' for Inactive)
REMARK    1  A    between atoms: C_1  and  O_2
REMARK    2  A    between atoms: O_2  and  C_3
REMARK    3  A    between atoms: C_6  and  C_7
REMARK    4  A    between atoms: C_8  and  C_9
REMARK    5  A    between atoms: C_9  and  C_11
REMARK    6  A    between atoms: C_14  and  O_15
REMARK    7  A    between atoms: C_17  and  O_18
REMARK                            x       y       z     vdW  Elec       q    Type
REMARK                         _______ _______ _______ _____ _____    ______ ____
ROOT
ATOM      1  C   UNL     1      31.354  21.889  69.193  0.00  0.00    +0.000 C 
ATOM      2  O   UNL     1      32.260  22.757  68.989  0.00  0.00    +0.000 OA
ENDROOT
BRANCH   1   3
ATOM      3  C   UNL     1      31.680  20.616  69.960  0.00  0.00    +0.000 A 
ATOM      4  C   UNL     1      31.520  19.390  69.335  0.00  0.00    +0.000 A 
ATOM      5  C   UNL     1      31.561  18.286  70.220  0.00  0.00    +0.000 A 
ATOM      6  C   UNL     1      32.054  18.327  71.445  0.00  0.00    +0.000 A 
ATOM      7  C   UNL     1      32.253  19.570  71.981  0.00  0.00    +0.000 A 
ATOM      8  C   UNL     1      32.104  20.700  71.215  0.00  0.00    +0.000 A 
BRANCH   6   9
ATOM      9  O   UNL     1      32.362  17.144  72.166  0.00  0.00    +0.000 OA
ATOM     10  H   UNL     1      33.295  16.785  72.164  0.00  0.00    +0.000 HD
ENDBRANCH   6   9
BRANCH   8  11
ATOM     11  O   UNL     1      32.410  21.971  71.770  0.00  0.00    +0.000 OA
ATOM     12  H   UNL     1      31.685  22.646  71.903  0.00  0.00    +0.000 HD
ENDBRANCH   8  11
ENDBRANCH   1   3
BRANCH   1  14
ATOM     13  C   UNL     1      28.876  21.663  69.372  0.00  0.00    +0.000 C 
ATOM     14  C   UNL     1      29.946  22.121  68.670  0.00  0.00    +0.000 C 
BRANCH  13  18
ATOM     15  C   UNL     1      24.984  22.211  67.700  0.00  0.00    +0.000 A 
ATOM     16  C   UNL     1      25.284  21.001  68.303  0.00  0.00    +0.000 A 
ATOM     17  C   UNL     1      26.509  21.002  69.011  0.00  0.00    +0.000 A 
ATOM     18  C   UNL     1      27.468  21.895  68.849  0.00  0.00    +0.000 A 
ATOM     19  C   UNL     1      27.125  23.041  68.186  0.00  0.00    +0.000 A 
ATOM     20  C   UNL     1      25.898  23.166  67.580  0.00  0.00    +0.000 A 
BRANCH  15  22
ATOM     21  C   UNL     1      22.570  21.767  67.852  0.00  0.00    +0.000 C 
ATOM     22  O   UNL     1      23.656  22.470  67.268  0.00  0.00    +0.000 OA
ENDBRANCH  15  22
ENDBRANCH  13  18
ENDBRANCH   1  14
TORSDOF 6
ENDMDL
