MODEL 1
REMARK VINA RESULT:    -7.131      0.000      0.000
REMARK INTER + INTRA:          -9.285
REMARK INTER:                  -8.846
REMARK INTRA:                  -0.439
REMARK UNBOUND:                -0.486
REMARK  Name = 
REMARK  6 active torsions:
REMARK  status: ('A' for Active; 'I' for Inactive)
REMARK    1  A    between atoms: C_1  and  O_2
REMARK    2  A    between atoms: O_2  and  C_3
REMARK    3  A    between atoms: C_5  and  C_6
REMARK    4  A    between atoms: C_7  and  C_8
REMARK    5  A    between atoms: C_15  and  O_16
REMARK    6  A    between atoms: O_16  and  C_17
REMARK                            x       y       z     vdW  Elec       q    Type
REMARK                         _______ _______ _______ _____ _____    ______ ____
ROOT
ATOM      1  C   UNL     1      33.684  23.991  68.119  0.00  0.00    +0.000 A 
ATOM      2  C   UNL     1      33.816  25.367  68.206  0.00  0.00    +0.000 A 
ATOM      3  C   UNL     1      33.590  25.884  69.504  0.00  0.00    +0.000 A 
ATOM      4  C   UNL     1      32.967  25.235  70.470  0.00  0.00    +0.000 A 
ATOM      5  C   UNL     1      32.807  23.888  70.294  0.00  0.00    +0.000 A 
ATOM      6  C   UNL     1      33.127  23.290  69.099  0.00  0.00    +0.000 A 
ENDROOT
BRANCH   1   8
ATOM      7  C   UNL     1      34.273  21.955  66.872  0.00  0.00    +0.000 C 
ATOM      8  O   UNL     1      34.074  23.359  66.908  0.00  0.00    +0.000 OA
ENDBRANCH   1   8
BRANCH   3   9
ATOM      9  C   UNL     1      34.099  27.283  69.806  0.00  0.00    +0.000 C 
ATOM     10  C   UNL     1      35.249  27.451  70.514  0.00  0.00    +0.000 C 
BRANCH  10  11
ATOM     11  C   UNL     1      35.757  28.851  70.817  0.00  0.00    +0.000 A 
ATOM     12  C   UNL     1      35.221  29.624  71.833  0.00  0.00    +0.000 A 
ATOM     13  C   UNL     1      35.668  30.966  71.831  0.00  0.00    +0.000 A 
ATOM     14  C   UNL     1      36.742  31.397  71.193  0.00  0.00    +0.000 A 
ATOM     15  C   UNL     1      37.266  30.558  70.248  0.00  0.00    +0.000 A 
ATOM     16  C   UNL     1      36.793  29.276  70.102  0.00  0.00    +0.000 A 
ENDBRANCH  10  11
ENDBRANCH   3   9
BRANCH   5  17
ATOM     17  O   UNL     1      32.302  23.098  71.359  0.00  0.00    +0.000 OA
ATOM     18  C   UNL     1      32.203  21.689  71.213  0.00  0.00    +0.000 C 
ENDBRANCH   5  17
TORSDOF 4
ENDMDL
MODEL 2
REMARK VINA RESULT:    -7.084      1.260      2.909
REMARK INTER + INTRA:          -9.226
REMARK INTER:                  -8.752
REMARK INTRA:                  -0.474
REMARK UNBOUND:                -0.486
REMARK  Name = 
REMARK  6 active torsions:
REMARK  status: ('A' for Active; 'I' for Inactive)
REMARK    1  A    between atoms: C_1  and  O_2
REMARK    2  A    between atoms: O_2  and  C_3
REMARK    3  A    between atoms: C_5  and  C_6
REMARK    4  A    between atoms: C_7  and  C_8
REMARK    5  A    between atoms: C_15  and  O_16
REMARK    6  A    between atoms: O_16  and  C_17
REMARK                            x       y       z     vdW  Elec       q    Type
REMARK                         _______ _______ _______ _____ _____    ______ ____
ROOT
ATOM      1  C   UNL     1      32.999  22.641  70.110  0.00  0.00    +0.000 A 
ATOM      2  C   UNL     1      33.987  23.563  70.418  0.00  0.00    +0.000 A 
ATOM      3  C   UNL     1      34.362  24.386  69.330  0.00  0.00    +0.000 A 
ATOM      4  C   UNL     1      34.108  24.115  68.064  0.00  0.00    +0.000 A 
ATOM      5  C   UNL     1      33.172  23.147  67.824  0.00  0.00    +0.000 A 
ATOM      6  C   UNL     1      32.662  22.390  68.851  0.00  0.00    +0.000 A 
ENDROOT
BRANCH   1   8
ATOM      7  C   UNL     1      31.255  22.380  71.824  0.00  0.00    +0.000 C 
ATOM      8  O   UNL     1      32.423  21.901  71.176  0.00  0.00    +0.000 OA
ENDBRANCH   1   8
BRANCH   3   9
ATOM      9  C   UNL     1      35.111  25.671  69.642  0.00  0.00    +0.000 C 
ATOM     10  C   UNL     1      34.530  26.627  70.416  0.00  0.00    +0.000 C 
BRANCH  10  11
ATOM     11  C   UNL     1      35.279  27.913  70.727  0.00  0.00    +0.000 A 
ATOM     12  C   UNL     1      34.708  28.935  71.466  0.00  0.00    +0.000 A 
ATOM     13  C   UNL     1      35.467  30.130  71.474  0.00  0.00    +0.000 A 
ATOM     14  C   UNL     1      36.743  30.209  71.143  0.00  0.00    +0.000 A 
ATOM     15  C   UNL     1      37.266  29.137  70.475  0.00  0.00    +0.000 A 
ATOM     16  C   UNL     1      36.539  27.982  70.313  0.00  0.00    +0.000 A 
ENDBRANCH  10  11
ENDBRANCH   3   9
BRANCH   5  17
ATOM     17  O   UNL     1      32.722  22.921  66.498  0.00  0.00    +0.000 OA
ATOM     18  C   UNL     1      31.583  22.105  66.263  0.00  0.00    +0.000 C 
ENDBRANCH   5  17
TORSDOF 4
ENDMDL
MODEL 3
REMARK VINA RESULT:    -7.068      0.739      2.645
REMARK INTER + INTRA:          -9.207
REMARK INTER:                  -8.794
REMARK INTRA:                  -0.412
REMARK UNBOUND:                -0.486
REMARK  Name = 
REMARK  6 active torsions:
REMARK  status: ('A' for Active; 'I' for Inactive)
REMARK    1  A    between atoms: C_1  and  O_2
REMARK    2  A    between atoms: O_2  and  C_3
REMARK    3  A    between atoms: C_5  and  C_6
REMARK    4  A    between atoms: C_7  and  C_8
REMARK    5  A    between atoms: C_15  and  O_16
REMARK    6  A    between atoms: O_16  and  C_17
REMARK                            x       y       z     vdW  Elec       q    Type
REMARK                         _______ _______ _______ _____ _____    ______ ____
ROOT
ATOM      1  C   UNL     1      32.456  24.057  70.207  0.00  0.00    +0.000 A 
ATOM      2  C   UNL     1      33.128  25.193  70.629  0.00  0.00    +0.000 A 
ATOM      3  C   UNL     1      33.950  25.776  69.636  0.00  0.00    +0.000 A 
ATOM      4  C   UNL     1      34.357  25.157  68.543  0.00  0.00    +0.000 A 
ATOM      5  C   UNL     1      33.699  24.004  68.216  0.00  0.00    +0.000 A 
ATOM      6  C   UNL     1      32.786  23.443  69.078  0.00  0.00    +0.000 A 
ENDROOT
BRANCH   1   8
ATOM      7  C   UNL     1      30.117  23.432  70.636  0.00  0.00    +0.000 C 
ATOM      8  O   UNL     1      31.467  23.510  71.067  0.00  0.00    +0.000 OA
ENDBRANCH   1   8
BRANCH   3   9
ATOM      9  C   UNL     1      34.396  27.214  69.842  0.00  0.00    +0.000 C 
ATOM     10  C   UNL     1      35.431  27.492  70.679  0.00  0.00    +0.000 C 
BRANCH  10  11
ATOM     11  C   UNL     1      35.876  28.931  70.886  0.00  0.00    +0.000 A 
ATOM     12  C   UNL     1      35.366  29.719  71.904  0.00  0.00    +0.000 A 
ATOM     13  C   UNL     1      35.733  31.082  71.813  0.00  0.00    +0.000 A 
ATOM     14  C   UNL     1      36.734  31.541  71.083  0.00  0.00    +0.000 A 
ATOM     15  C   UNL     1      37.240  30.690  70.141  0.00  0.00    +0.000 A 
ATOM     16  C   UNL     1      36.834  29.378  70.083  0.00  0.00    +0.000 A 
ENDBRANCH  10  11
ENDBRANCH   3   9
BRANCH   5  17
ATOM     17  O   UNL     1      33.963  23.376  66.971  0.00  0.00    +0.000 OA
ATOM     18  C   UNL     1      34.178  21.974  66.914  0.00  0.00    +0.000 C 
ENDBRANCH   5  17
TORSDOF 4
ENDMDL
MODEL 4
REMARK VINA RESULT:    -6.998      3.877      9.432
REMARK INTER + INTRA:          -9.121
REMARK INTER:                  -8.707
REMARK INTRA:                  -0.414
REMARK UNBOUND:                -0.486
REMARK  Name = 
REMARK  6 active torsions:
REMARK  status: ('A' for Active; 'I' for Inactive)
REMARK    1  A    between atoms: C_1  and  O_2
REMARK    2  A    between atoms: O_2  and  C_3
REMARK    3  A    between atoms: C_5  and  C_6
REMARK    4  A    between atoms: C_7  and  C_8
REMARK    5  A    between atoms: C_15  and  O_16
REMARK    6  A    between atoms: O_16  and  C_17
REMARK                            x       y       z     vdW  Elec       q    Type
REMARK                         _______ _______ _______ _____ _____    ______ ____
ROOT
ATOM      1  C   UNL     1      32.950  23.462  69.748  0.00  0.00    +0.000 A 
ATOM      2  C   UNL     1      32.771  22.111  69.497  0.00  0.00    +0.000 A 
ATOM      3  C   UNL     1      31.881  21.474  70.394  0.00  0.00    +0.000 A 
ATOM      4  C   UNL     1      31.523  21.963  71.567  0.00  0.00    +0.000 A 
ATOM      5  C   UNL     1      31.789  23.288  71.781  0.00  0.00    +0.000 A 
ATOM      6  C   UNL     1      32.541  24.010  70.886  0.00  0.00    +0.000 A 
ENDROOT
BRANCH   1   8
ATOM      7  C   UNL     1      33.258  25.547  68.483  0.00  0.00    +0.000 C 
ATOM      8  O   UNL     1      33.673  24.226  68.794  0.00  0.00    +0.000 OA
ENDBRANCH   1   8
BRANCH   3   9
ATOM      9  C   UNL     1      31.298  20.133  69.980  0.00  0.00    +0.000 C 
ATOM     10  C   UNL     1      31.915  18.979  70.351  0.00  0.00    +0.000 C 
BRANCH  10  11
ATOM     11  C   UNL     1      31.333  17.638  69.935  0.00  0.00    +0.000 A 
ATOM     12  C   UNL     1      31.521  17.117  68.666  0.00  0.00    +0.000 A 
ATOM     13  C   UNL     1      30.735  15.972  68.394  0.00  0.00    +0.000 A 
ATOM     14  C   UNL     1      30.152  15.227  69.316  0.00  0.00    +0.000 A 
ATOM     15  C   UNL     1      30.058  15.771  70.567  0.00  0.00    +0.000 A 
ATOM     16  C   UNL     1      30.689  16.953  70.873  0.00  0.00    +0.000 A 
ENDBRANCH  10  11
ENDBRANCH   3   9
BRANCH   5  17
ATOM     17  O   UNL     1      31.283  23.924  72.944  0.00  0.00    +0.000 OA
ATOM     18  C   UNL     1      31.965  25.041  73.496  0.00  0.00    +0.000 C 
ENDBRANCH   5  17
TORSDOF 4
ENDMDL
MODEL 5
REMARK VINA RESULT:    -6.921      3.112      8.911
REMARK INTER + INTRA:          -9.025
REMARK INTER:                  -8.583
REMARK INTRA:                  -0.442
REMARK UNBOUND:                -0.486
REMARK  Name = 
REMARK  6 active torsions:
REMARK  status: ('A' for Active; 'I' for Inactive)
REMARK    1  A    between atoms: C_1  and  O_2
REMARK    2  A    between atoms: O_2  and  C_3
REMARK    3  A    between atoms: C_5  and  C_6
REMARK    4  A    between atoms: C_7  and  C_8
REMARK    5  A    between atoms: C_15  and  O_16
REMARK    6  A    between atoms: O_16  and  C_17
REMARK                            x       y       z     vdW  Elec       q    Type
REMARK                         _______ _______ _______ _____ _____    ______ ____
ROOT
ATOM      1  C   UNL     1      31.715  25.062  71.444  0.00  0.00    +0.000 A 
ATOM      2  C   UNL     1      31.202  23.783  71.299  0.00  0.00    +0.000 A 
ATOM      3  C   UNL     1      32.146  22.835  70.838  0.00  0.00    +0.000 A 
ATOM      4  C   UNL     1      33.288  23.141  70.249  0.00  0.00    +0.000 A 
ATOM      5  C   UNL     1      33.707  24.437  70.371  0.00  0.00    +0.000 A 
ATOM      6  C   UNL     1      32.893  25.393  70.929  0.00  0.00    +0.000 A 
ENDROOT
BRANCH   1   8
ATOM      7  C   UNL     1      30.733  27.316  71.483  0.00  0.00    +0.000 C 
ATOM      8  O   UNL     1      30.901  26.038  72.078  0.00  0.00    +0.000 OA
ENDBRANCH   1   8
BRANCH   3   9
ATOM      9  C   UNL     1      31.824  21.363  71.033  0.00  0.00    +0.000 C 
ATOM     10  C   UNL     1      31.542  20.580  69.957  0.00  0.00    +0.000 C 
BRANCH  10  11
ATOM     11  C   UNL     1      31.218  19.107  70.153  0.00  0.00    +0.000 A 
ATOM     12  C   UNL     1      30.337  18.433  69.324  0.00  0.00    +0.000 A 
ATOM     13  C   UNL     1      29.997  17.138  69.781  0.00  0.00    +0.000 A 
ATOM     14  C   UNL     1      30.683  16.457  70.683  0.00  0.00    +0.000 A 
ATOM     15  C   UNL     1      31.587  17.168  71.422  0.00  0.00    +0.000 A 
ATOM     16  C   UNL     1      31.876  18.476  71.118  0.00  0.00    +0.000 A 
ENDBRANCH  10  11
ENDBRANCH   3   9
BRANCH   5  17
ATOM     17  O   UNL     1      35.001  24.800  69.914  0.00  0.00    +0.000 OA
ATOM     18  C   UNL     1      35.395  26.164  69.909  0.00  0.00    +0.000 C 
ENDBRANCH   5  17
TORSDOF 4
ENDMDL
MODEL 6
REMARK VINA RESULT:    -6.750      4.366      6.413
REMARK INTER + INTRA:          -8.814
REMARK INTER:                  -8.336
REMARK INTRA:                  -0.479
REMARK UNBOUND:                -0.486
REMARK  Name = 
REMARK  6 active torsions:
REMARK  status: ('A' for Active; 'I' for Inactive)
REMARK    1  A    between atoms: C_1  and  O_2
REMARK    2  A    between atoms: O_2  and  C_3
REMARK    3  A    between atoms: C_5  and  C_6
REMARK    4  A    between atoms: C_7  and  C_8
REMARK    5  A    between atoms: C_15  and  O_16
REMARK    6  A    between atoms: O_16  and  C_17
REMARK                            x       y       z     vdW  Elec       q    Type
REMARK                         _______ _______ _______ _____ _____    ______ ____
ROOT
ATOM      1  C   UNL     1      34.899  27.959  70.639  0.00  0.00    +0.000 A 
ATOM      2  C   UNL     1      34.168  28.772  69.789  0.00  0.00    +0.000 A 
ATOM      3  C   UNL     1      33.336  28.063  68.891  0.00  0.00    +0.000 A 
ATOM      4  C   UNL     1      33.471  26.783  68.597  0.00  0.00    +0.000 A 
ATOM      5  C   UNL     1      34.261  26.046  69.436  0.00  0.00    +0.000 A 
ATOM      6  C   UNL     1      35.002  26.653  70.421  0.00  0.00    +0.000 A 
ENDROOT
BRANCH   1   8
ATOM      7  C   UNL     1      35.428  29.955  71.974  0.00  0.00    +0.000 C 
ATOM      8  O   UNL     1      35.617  28.576  71.698  0.00  0.00    +0.000 OA
ENDBRANCH   1   8
BRANCH   3   9
ATOM      9  C   UNL     1      32.210  28.828  68.216  0.00  0.00    +0.000 C 
ATOM     10  C   UNL     1      31.506  28.252  67.205  0.00  0.00    +0.000 C 
BRANCH  10  11
ATOM     11  C   UNL     1      30.380  29.018  66.529  0.00  0.00    +0.000 A 
ATOM     12  C   UNL     1      30.526  30.335  66.127  0.00  0.00    +0.000 A 
ATOM     13  C   UNL     1      29.318  30.946  65.715  0.00  0.00    +0.000 A 
ATOM     14  C   UNL     1      28.221  30.288  65.383  0.00  0.00    +0.000 A 
ATOM     15  C   UNL     1      28.167  28.972  65.748  0.00  0.00    +0.000 A 
ATOM     16  C   UNL     1      29.266  28.340  66.279  0.00  0.00    +0.000 A 
ENDBRANCH  10  11
ENDBRANCH   3   9
BRANCH   5  17
ATOM     17  O   UNL     1      34.317  24.636  69.287  0.00  0.00    +0.000 OA
ATOM     18  C   UNL     1      33.253  23.947  68.646  0.00  0.00    +0.000 C 
ENDBRANCH   5  17
TORSDOF 4
ENDMDL
MODEL 7
REMARK VINA RESULT:    -6.733      5.876      9.570
REMARK INTER + INTRA:          -8.793
REMARK INTER:                  -8.338
REMARK INTRA:                  -0.455
REMARK UNBOUND:                -0.486
REMARK  Name = 
REMARK  6 active torsions:
REMARK  status: ('A' for Active; 'I' for Inactive)
REMARK    1  A    between atoms: C_1  and  O_2
REMARK    2  A    between atoms: O_2  and  C_3
REMARK    3  A    between atoms: C_5  and  C_6
REMARK    4  A    between atoms: C_7  and  C_8
REMARK    5  A    between atoms: C_15  and  O_16
REMARK    6  A    between atoms: O_16  and  C_17
REMARK                            x       y       z     vdW  Elec       q    Type
REMARK                         _______ _______ _______ _____ _____    ______ ____
ROOT
ATOM      1  C   UNL     1      31.359  18.930  69.470  0.00  0.00    +0.000 A 
ATOM      2  C   UNL     1      30.066  19.146  69.024  0.00  0.00    +0.000 A 
ATOM      3  C   UNL     1      29.626  20.484  69.165  0.00  0.00    +0.000 A 
ATOM      4  C   UNL     1      30.193  21.378  69.954  0.00  0.00    +0.000 A 
ATOM      5  C   UNL     1      31.443  21.076  70.418  0.00  0.00    +0.000 A 
ATOM      6  C   UNL     1      31.993  19.834  70.207  0.00  0.00    +0.000 A 
ENDROOT
BRANCH   1   8
ATOM      7  C   UNL     1      31.312  16.753  68.327  0.00  0.00    +0.000 C 
ATOM      8  O   UNL     1      31.955  17.669  69.200  0.00  0.00    +0.000 OA
ENDBRANCH   1   8
BRANCH   3   9
ATOM      9  C   UNL     1      28.418  20.921  68.353  0.00  0.00    +0.000 C 
ATOM     10  C   UNL     1      27.323  21.427  68.982  0.00  0.00    +0.000 C 
BRANCH  10  11
ATOM     11  C   UNL     1      26.115  21.863  68.170  0.00  0.00    +0.000 A 
ATOM     12  C   UNL     1      24.984  21.072  68.052  0.00  0.00    +0.000 A 
ATOM     13  C   UNL     1      24.054  21.539  67.093  0.00  0.00    +0.000 A 
ATOM     14  C   UNL     1      24.035  22.766  66.604  0.00  0.00    +0.000 A 
ATOM     15  C   UNL     1      25.156  23.521  66.813  0.00  0.00    +0.000 A 
ATOM     16  C   UNL     1      26.165  23.076  67.632  0.00  0.00    +0.000 A 
ENDBRANCH  10  11
ENDBRANCH   3   9
BRANCH   5  17
ATOM     17  O   UNL     1      32.183  22.057  71.128  0.00  0.00    +0.000 OA
ATOM     18  C   UNL     1      31.518  23.179  71.691  0.00  0.00    +0.000 C 
ENDBRANCH   5  17
TORSDOF 4
ENDMDL
MODEL 8
REMARK VINA RESULT:    -6.597      2.614      7.105
REMARK INTER + INTRA:          -8.626
REMARK INTER:                  -8.133
REMARK INTRA:                  -0.493
REMARK UNBOUND:                -0.486
REMARK  Name = 
REMARK  6 active torsions:
REMARK  status: ('A' for Active; 'I' for Inactive)
REMARK    1  A    between atoms: C_1  and  O_2
REMARK    2  A    between atoms: O_2  and  C_3
REMARK    3  A    between atoms: C_5  and  C_6
REMARK    4  A    between atoms: C_7  and  C_8
REMARK    5  A    between atoms: C_15  and  O_16
REMARK    6  A    between atoms: O_16  and  C_17
REMARK                            x       y       z     vdW  Elec       q    Type
REMARK                         _______ _______ _______ _____ _____    ______ ____
ROOT
ATOM      1  C   UNL     1      33.144  28.386  68.648  0.00  0.00    +0.000 A 
ATOM      2  C   UNL     1      33.068  27.053  68.281  0.00  0.00    +0.000 A 
ATOM      3  C   UNL     1      33.576  26.159  69.253  0.00  0.00    +0.000 A 
ATOM      4  C   UNL     1      34.374  26.509  70.246  0.00  0.00    +0.000 A 
ATOM      5  C   UNL     1      34.459  27.847  70.516  0.00  0.00    +0.000 A 
ATOM      6  C   UNL     1      33.878  28.773  69.684  0.00  0.00    +0.000 A 
ENDROOT
BRANCH   1   8
ATOM      7  C   UNL     1      32.025  28.970  66.537  0.00  0.00    +0.000 C 
ATOM      8  O   UNL     1      32.491  29.342  67.825  0.00  0.00    +0.000 OA
ENDBRANCH   1   8
BRANCH   3   9
ATOM      9  C   UNL     1      33.177  24.697  69.148  0.00  0.00    +0.000 C 
ATOM     10  C   UNL     1      33.010  23.954  70.275  0.00  0.00    +0.000 C 
BRANCH  10  11
ATOM     11  C   UNL     1      32.612  22.491  70.169  0.00  0.00    +0.000 A 
ATOM     12  C   UNL     1      32.185  21.764  71.268  0.00  0.00    +0.000 A 
ATOM     13  C   UNL     1      32.062  20.376  71.026  0.00  0.00    +0.000 A 
ATOM     14  C   UNL     1      31.994  19.828  69.825  0.00  0.00    +0.000 A 
ATOM     15  C   UNL     1      32.365  20.620  68.774  0.00  0.00    +0.000 A 
ATOM     16  C   UNL     1      32.627  21.956  68.954  0.00  0.00    +0.000 A 
ENDBRANCH  10  11
ENDBRANCH   3   9
BRANCH   5  17
ATOM     17  O   UNL     1      35.159  28.285  71.670  0.00  0.00    +0.000 OA
ATOM     18  C   UNL     1      35.581  29.636  71.775  0.00  0.00    +0.000 C 
ENDBRANCH   5  17
TORSDOF 4
ENDMDL
MODEL 9
REMARK VINA RESULT:    -6.575      4.600      6.407
REMARK INTER + INTRA:          -8.599
REMARK INTER:                  -8.113
REMARK INTRA:                  -0.486
REMARK UNBOUND:                -0.486
REMARK  Name = 
REMARK  6 active torsions:
REMARK  status: ('A' for Active; 'I' for Inactive)
REMARK    1  A    between atoms: C_1  and  O_2
REMARK    2  A    between atoms: O_2  and  C_3
REMARK    3  A    between atoms: C_5  and  C_6
REMARK    4  A    between atoms: C_7  and  C_8
REMARK    5  A    between atoms: C_15  and  O_16
REMARK    6  A    between atoms: O_16  and  C_17
REMARK                            x       y       z     vdW  Elec       q    Type
REMARK                         _______ _______ _______ _____ _____    ______ ____
ROOT
ATOM      1  C   UNL     1      28.993  19.875  69.117  0.00  0.00    +0.000 A 
ATOM      2  C   UNL     1      29.481  21.169  69.196  0.00  0.00    +0.000 A 
ATOM      3  C   UNL     1      30.880  21.267  69.007  0.00  0.00    +0.000 A 
ATOM      4  C   UNL     1      31.722  20.255  69.109  0.00  0.00    +0.000 A 
ATOM      5  C   UNL     1      31.172  19.002  69.094  0.00  0.00    +0.000 A 
ATOM      6  C   UNL     1      29.810  18.829  69.144  0.00  0.00    +0.000 A 
ENDROOT
BRANCH   1   8
ATOM      7  C   UNL     1      26.725  20.821  69.033  0.00  0.00    +0.000 C 
ATOM      8  O   UNL     1      27.584  19.694  69.105  0.00  0.00    +0.000 OA
ENDBRANCH   1   8
BRANCH   3   9
ATOM      9  C   UNL     1      31.454  22.632  68.665  0.00  0.00    +0.000 C 
ATOM     10  C   UNL     1      30.654  23.591  68.127  0.00  0.00    +0.000 C 
BRANCH  10  11
ATOM     11  C   UNL     1      31.228  24.956  67.784  0.00  0.00    +0.000 A 
ATOM     12  C   UNL     1      30.441  26.095  67.741  0.00  0.00    +0.000 A 
ATOM     13  C   UNL     1      31.097  27.226  67.201  0.00  0.00    +0.000 A 
ATOM     14  C   UNL     1      32.408  27.343  67.077  0.00  0.00    +0.000 A 
ATOM     15  C   UNL     1      33.136  26.192  67.198  0.00  0.00    +0.000 A 
ATOM     16  C   UNL     1      32.541  25.018  67.594  0.00  0.00    +0.000 A 
ENDBRANCH  10  11
ENDBRANCH   3   9
BRANCH   5  17
ATOM     17  O   UNL     1      32.020  17.866  69.027  0.00  0.00    +0.000 OA
ATOM     18  C   UNL     1      31.972  16.883  70.051  0.00  0.00    +0.000 C 
ENDBRANCH   5  17
TORSDOF 4
ENDMDL
