MODEL 1
REMARK VINA RESULT:    -7.681      0.000      0.000
REMARK INTER + INTRA:         -13.801
REMARK INTER:                 -10.868
REMARK INTRA:                  -2.933
REMARK UNBOUND:                -2.078
REMARK  Name = 
REMARK  10 active torsions:
REMARK  status: ('A' for Active; 'I' for Inactive)
REMARK    1  A    between atoms: C_2  and  C_3
REMARK    2  A    between atoms: C_2  and  C_14
REMARK    3  A    between atoms: C_3  and  C_4
REMARK    4  A    between atoms: C_4  and  C_5
REMARK    5  A    between atoms: C_5  and  C_6
REMARK    6  A    between atoms: C_6  and  C_7
REMARK    7  A    between atoms: C_10  and  O_11
REMARK    8  A    between atoms: C_14  and  C_15
REMARK    9  A    between atoms: C_15  and  C_16
REMARK   10  A    between atoms: C_19  and  O_20
REMARK                            x       y       z     vdW  Elec       q    Type
REMARK                         _______ _______ _______ _____ _____    ______ ____
ROOT
ATOM      1  O   UNL     1      31.290  24.839  73.280  0.00  0.00    +0.000 OA
ATOM      2  C   UNL     1      31.639  24.800  72.059  0.00  0.00    +0.000 C 
ENDROOT
BRANCH   2   3
ATOM      3  C   UNL     1      31.863  26.092  71.291  0.00  0.00    +0.000 C 
BRANCH   3   4
ATOM      4  C   UNL     1      30.731  26.296  70.298  0.00  0.00    +0.000 C 
BRANCH   4   5
ATOM      5  C   UNL     1      31.289  26.287  68.884  0.00  0.00    +0.000 C 
BRANCH   5   6
ATOM      6  C   UNL     1      30.649  25.158  68.094  0.00  0.00    +0.000 C 
BRANCH   6   7
ATOM      7  C   UNL     1      31.719  24.167  67.665  0.00  0.00    +0.000 A 
ATOM      8  C   UNL     1      32.988  24.393  68.148  0.00  0.00    +0.000 A 
ATOM      9  C   UNL     1      34.019  23.473  67.928  0.00  0.00    +0.000 A 
ATOM     10  C   UNL     1      33.704  22.301  67.210  0.00  0.00    +0.000 A 
ATOM     11  C   UNL     1      32.440  22.102  66.706  0.00  0.00    +0.000 A 
ATOM     12  C   UNL     1      31.447  23.032  66.943  0.00  0.00    +0.000 A 
BRANCH  10  13
ATOM     13  O   UNL     1      34.629  21.345  66.968  0.00  0.00    +0.000 OA
ATOM     14  H   UNL     1      34.354  20.477  66.553  0.00  0.00    +0.000 HD
ENDBRANCH  10  13
ENDBRANCH   6   7
ENDBRANCH   5   6
ENDBRANCH   4   5
ENDBRANCH   3   4
ENDBRANCH   2   3
BRANCH   2  15
ATOM     15  C   UNL     1      31.831  23.461  71.366  0.00  0.00    +0.000 C 
BRANCH  15  16
ATOM     16  C   UNL     1      30.479  22.800  71.155  0.00  0.00    +0.000 C 
BRANCH  16  17
ATOM     17  C   UNL     1      30.644  21.582  70.262  0.00  0.00    +0.000 A 
ATOM     18  C   UNL     1      29.609  21.185  69.445  0.00  0.00    +0.000 A 
ATOM     19  C   UNL     1      29.738  20.073  68.605  0.00  0.00    +0.000 A 
ATOM     20  C   UNL     1      30.971  19.389  68.613  0.00  0.00    +0.000 A 
ATOM     21  C   UNL     1      31.987  19.777  69.455  0.00  0.00    +0.000 A 
ATOM     22  C   UNL     1      31.825  20.879  70.271  0.00  0.00    +0.000 A 
BRANCH  20  23
ATOM     23  O   UNL     1      31.195  18.319  67.817  0.00  0.00    +0.000 OA
ATOM     24  H   UNL     1      32.065  17.830  67.870  0.00  0.00    +0.000 HD
ENDBRANCH  20  23
ENDBRANCH  16  17
ENDBRANCH  15  16
ENDBRANCH   2  15
TORSDOF 10
ENDMDL
MODEL 2
REMARK VINA RESULT:    -7.638      2.030      6.469
REMARK INTER + INTRA:         -13.736
REMARK INTER:                 -10.731
REMARK INTRA:                  -3.005
REMARK UNBOUND:                -2.078
REMARK  Name = 
REMARK  10 active torsions:
REMARK  status: ('A' for Active; 'I' for Inactive)
REMARK    1  A    between atoms: C_2  and  C_3
REMARK    2  A    between atoms: C_2  and  C_14
REMARK    3  A    between atoms: C_3  and  C_4
REMARK    4  A    between atoms: C_4  and  C_5
REMARK    5  A    between atoms: C_5  and  C_6
REMARK    6  A    between atoms: C_6  and  C_7
REMARK    7  A    between atoms: C_10  and  O_11
REMARK    8  A    between atoms: C_14  and  C_15
REMARK    9  A    between atoms: C_15  and  C_16
REMARK   10  A    between atoms: C_19  and  O_20
REMARK                            x       y       z     vdW  Elec       q    Type
REMARK                         _______ _______ _______ _____ _____    ______ ____
ROOT
ATOM      1  O   UNL     1      34.256  22.405  66.308  0.00  0.00    +0.000 OA
ATOM      2  C   UNL     1      33.518  22.654  67.312  0.00  0.00    +0.000 C 
ENDROOT
BRANCH   2   3
ATOM      3  C   UNL     1      32.219  21.890  67.509  0.00  0.00    +0.000 C 
BRANCH   3   4
ATOM      4  C   UNL     1      31.063  22.703  66.949  0.00  0.00    +0.000 C 
BRANCH   4   5
ATOM      5  C   UNL     1      30.120  23.087  68.079  0.00  0.00    +0.000 C 
BRANCH   5   6
ATOM      6  C   UNL     1      30.225  24.581  68.339  0.00  0.00    +0.000 C 
BRANCH   6   7
ATOM      7  C   UNL     1      30.752  24.815  69.746  0.00  0.00    +0.000 A 
ATOM      8  C   UNL     1      30.564  26.076  70.265  0.00  0.00    +0.000 A 
ATOM      9  C   UNL     1      30.887  26.364  71.596  0.00  0.00    +0.000 A 
ATOM     10  C   UNL     1      31.395  25.311  72.385  0.00  0.00    +0.000 A 
ATOM     11  C   UNL     1      31.607  24.065  71.846  0.00  0.00    +0.000 A 
ATOM     12  C   UNL     1      31.276  23.816  70.529  0.00  0.00    +0.000 A 
BRANCH  10  13
ATOM     13  O   UNL     1      31.714  25.490  73.688  0.00  0.00    +0.000 OA
ATOM     14  H   UNL     1      30.995  25.490  74.383  0.00  0.00    +0.000 HD
ENDBRANCH  10  13
ENDBRANCH   6   7
ENDBRANCH   5   6
ENDBRANCH   4   5
ENDBRANCH   3   4
ENDBRANCH   2   3
BRANCH   2  15
ATOM     15  C   UNL     1      33.934  23.716  68.316  0.00  0.00    +0.000 C 
BRANCH  15  16
ATOM     16  C   UNL     1      33.938  25.078  67.642  0.00  0.00    +0.000 C 
BRANCH  16  17
ATOM     17  C   UNL     1      33.909  26.168  68.700  0.00  0.00    +0.000 A 
ATOM     18  C   UNL     1      34.467  25.937  69.938  0.00  0.00    +0.000 A 
ATOM     19  C   UNL     1      34.462  26.928  70.927  0.00  0.00    +0.000 A 
ATOM     20  C   UNL     1      33.884  28.172  70.603  0.00  0.00    +0.000 A 
ATOM     21  C   UNL     1      33.305  28.380  69.373  0.00  0.00    +0.000 A 
ATOM     22  C   UNL     1      33.326  27.381  68.421  0.00  0.00    +0.000 A 
BRANCH  20  23
ATOM     23  O   UNL     1      33.857  29.195  71.486  0.00  0.00    +0.000 OA
ATOM     24  H   UNL     1      33.345  30.027  71.273  0.00  0.00    +0.000 HD
ENDBRANCH  20  23
ENDBRANCH  16  17
ENDBRANCH  15  16
ENDBRANCH   2  15
TORSDOF 10
ENDMDL
MODEL 3
REMARK VINA RESULT:    -7.479      1.558      2.235
REMARK INTER + INTRA:         -13.492
REMARK INTER:                 -11.404
REMARK INTRA:                  -2.089
REMARK UNBOUND:                -2.078
REMARK  Name = 
REMARK  10 active torsions:
REMARK  status: ('A' for Active; 'I' for Inactive)
REMARK    1  A    between atoms: C_2  and  C_3
REMARK    2  A    between atoms: C_2  and  C_14
REMARK    3  A    between atoms: C_3  and  C_4
REMARK    4  A    between atoms: C_4  and  C_5
REMARK    5  A    between atoms: C_5  and  C_6
REMARK    6  A    between atoms: C_6  and  C_7
REMARK    7  A    between atoms: C_10  and  O_11
REMARK    8  A    between atoms: C_14  and  C_15
REMARK    9  A    between atoms: C_15  and  C_16
REMARK   10  A    between atoms: C_19  and  O_20
REMARK                            x       y       z     vdW  Elec       q    Type
REMARK                         _______ _______ _______ _____ _____    ______ ____
ROOT
ATOM      1  O   UNL     1      30.910  22.746  73.006  0.00  0.00    +0.000 OA
ATOM      2  C   UNL     1      31.062  22.801  71.745  0.00  0.00    +0.000 C 
ENDROOT
BRANCH   2   3
ATOM      3  C   UNL     1      30.110  23.630  70.900  0.00  0.00    +0.000 C 
BRANCH   3   4
ATOM      4  C   UNL     1      29.217  22.707  70.088  0.00  0.00    +0.000 C 
BRANCH   4   5
ATOM      5  C   UNL     1      28.807  23.402  68.799  0.00  0.00    +0.000 C 
BRANCH   5   6
ATOM      6  C   UNL     1      29.878  24.404  68.402  0.00  0.00    +0.000 C 
BRANCH   6   7
ATOM      7  C   UNL     1      31.012  23.680  67.693  0.00  0.00    +0.000 A 
ATOM      8  C   UNL     1      32.289  24.046  68.054  0.00  0.00    +0.000 A 
ATOM      9  C   UNL     1      33.403  23.354  67.566  0.00  0.00    +0.000 A 
ATOM     10  C   UNL     1      33.167  22.261  66.708  0.00  0.00    +0.000 A 
ATOM     11  C   UNL     1      31.889  21.924  66.331  0.00  0.00    +0.000 A 
ATOM     12  C   UNL     1      30.812  22.629  66.832  0.00  0.00    +0.000 A 
BRANCH  10  13
ATOM     13  O   UNL     1      34.180  21.519  66.206  0.00  0.00    +0.000 OA
ATOM     14  H   UNL     1      34.232  20.541  66.410  0.00  0.00    +0.000 HD
ENDBRANCH  10  13
ENDBRANCH   6   7
ENDBRANCH   5   6
ENDBRANCH   4   5
ENDBRANCH   3   4
ENDBRANCH   2   3
BRANCH   2  15
ATOM     15  C   UNL     1      32.197  22.038  71.083  0.00  0.00    +0.000 C 
BRANCH  15  16
ATOM     16  C   UNL     1      32.318  20.661  71.715  0.00  0.00    +0.000 C 
BRANCH  16  17
ATOM     17  C   UNL     1      31.979  19.598  70.683  0.00  0.00    +0.000 A 
ATOM     18  C   UNL     1      32.010  18.266  71.033  0.00  0.00    +0.000 A 
ATOM     19  C   UNL     1      31.692  17.269  70.104  0.00  0.00    +0.000 A 
ATOM     20  C   UNL     1      31.323  17.678  68.807  0.00  0.00    +0.000 A 
ATOM     21  C   UNL     1      31.324  19.009  68.461  0.00  0.00    +0.000 A 
ATOM     22  C   UNL     1      31.643  19.967  69.403  0.00  0.00    +0.000 A 
BRANCH  20  23
ATOM     23  O   UNL     1      30.976  16.786  67.853  0.00  0.00    +0.000 OA
ATOM     24  H   UNL     1      31.058  17.029  66.886  0.00  0.00    +0.000 HD
ENDBRANCH  20  23
ENDBRANCH  16  17
ENDBRANCH  15  16
ENDBRANCH   2  15
TORSDOF 10
ENDMDL
MODEL 4
REMARK VINA RESULT:    -7.359      1.713      4.710
REMARK INTER + INTRA:         -13.309
REMARK INTER:                 -10.317
REMARK INTRA:                  -2.993
REMARK UNBOUND:                -2.078
REMARK  Name = 
REMARK  10 active torsions:
REMARK  status: ('A' for Active; 'I' for Inactive)
REMARK    1  A    between atoms: C_2  and  C_3
REMARK    2  A    between atoms: C_2  and  C_14
REMARK    3  A    between atoms: C_3  and  C_4
REMARK    4  A    between atoms: C_4  and  C_5
REMARK    5  A    between atoms: C_5  and  C_6
REMARK    6  A    between atoms: C_6  and  C_7
REMARK    7  A    between atoms: C_10  and  O_11
REMARK    8  A    between atoms: C_14  and  C_15
REMARK    9  A    between atoms: C_15  and  C_16
REMARK   10  A    between atoms: C_19  and  O_20
REMARK                            x       y       z     vdW  Elec       q    Type
REMARK                         _______ _______ _______ _____ _____    ______ ____
ROOT
ATOM      1  O   UNL     1      30.264  21.029  66.130  0.00  0.00    +0.000 OA
ATOM      2  C   UNL     1      30.551  22.090  66.768  0.00  0.00    +0.000 C 
ENDROOT
BRANCH   2   3
ATOM      3  C   UNL     1      31.890  22.773  66.543  0.00  0.00    +0.000 C 
BRANCH   3   4
ATOM      4  C   UNL     1      32.993  21.953  67.190  0.00  0.00    +0.000 C 
BRANCH   4   5
ATOM      5  C   UNL     1      33.435  22.626  68.480  0.00  0.00    +0.000 C 
BRANCH   5   6
ATOM      6  C   UNL     1      33.568  24.122  68.250  0.00  0.00    +0.000 C 
BRANCH   6   7
ATOM      7  C   UNL     1      32.919  24.872  69.402  0.00  0.00    +0.000 A 
ATOM      8  C   UNL     1      31.643  25.340  69.183  0.00  0.00    +0.000 A 
ATOM      9  C   UNL     1      30.901  25.925  70.216  0.00  0.00    +0.000 A 
ATOM     10  C   UNL     1      31.503  25.999  71.489  0.00  0.00    +0.000 A 
ATOM     11  C   UNL     1      32.789  25.555  71.688  0.00  0.00    +0.000 A 
ATOM     12  C   UNL     1      33.492  24.984  70.645  0.00  0.00    +0.000 A 
BRANCH  10  13
ATOM     13  O   UNL     1      30.855  26.526  72.553  0.00  0.00    +0.000 OA
ATOM     14  H   UNL     1      30.393  25.925  73.205  0.00  0.00    +0.000 HD
ENDBRANCH  10  13
ENDBRANCH   6   7
ENDBRANCH   5   6
ENDBRANCH   4   5
ENDBRANCH   3   4
ENDBRANCH   2   3
BRANCH   2  15
ATOM     15  C   UNL     1      29.556  22.676  67.755  0.00  0.00    +0.000 C 
BRANCH  15  16
ATOM     16  C   UNL     1      29.090  21.589  68.710  0.00  0.00    +0.000 C 
BRANCH  16  17
ATOM     17  C   UNL     1      30.190  21.292  69.716  0.00  0.00    +0.000 A 
ATOM     18  C   UNL     1      30.485  22.208  70.701  0.00  0.00    +0.000 A 
ATOM     19  C   UNL     1      31.487  21.954  71.645  0.00  0.00    +0.000 A 
ATOM     20  C   UNL     1      32.167  20.723  71.561  0.00  0.00    +0.000 A 
ATOM     21  C   UNL     1      31.884  19.829  70.555  0.00  0.00    +0.000 A 
ATOM     22  C   UNL     1      30.890  20.111  69.639  0.00  0.00    +0.000 A 
BRANCH  20  23
ATOM     23  O   UNL     1      33.132  20.382  72.445  0.00  0.00    +0.000 OA
ATOM     24  H   UNL     1      33.998  20.003  72.118  0.00  0.00    +0.000 HD
ENDBRANCH  20  23
ENDBRANCH  16  17
ENDBRANCH  15  16
ENDBRANCH   2  15
TORSDOF 10
ENDMDL
MODEL 5
REMARK VINA RESULT:    -7.349      1.052      1.656
REMARK INTER + INTRA:         -13.295
REMARK INTER:                 -10.048
REMARK INTRA:                  -3.246
REMARK UNBOUND:                -2.078
REMARK  Name = 
REMARK  10 active torsions:
REMARK  status: ('A' for Active; 'I' for Inactive)
REMARK    1  A    between atoms: C_2  and  C_3
REMARK    2  A    between atoms: C_2  and  C_14
REMARK    3  A    between atoms: C_3  and  C_4
REMARK    4  A    between atoms: C_4  and  C_5
REMARK    5  A    between atoms: C_5  and  C_6
REMARK    6  A    between atoms: C_6  and  C_7
REMARK    7  A    between atoms: C_10  and  O_11
REMARK    8  A    between atoms: C_14  and  C_15
REMARK    9  A    between atoms: C_15  and  C_16
REMARK   10  A    between atoms: C_19  and  O_20
REMARK                            x       y       z     vdW  Elec       q    Type
REMARK                         _______ _______ _______ _____ _____    ______ ____
ROOT
ATOM      1  O   UNL     1      33.257  25.863  71.675  0.00  0.00    +0.000 OA
ATOM      2  C   UNL     1      32.048  26.024  71.317  0.00  0.00    +0.000 C 
ENDROOT
BRANCH   2   3
ATOM      3  C   UNL     1      31.629  27.302  70.610  0.00  0.00    +0.000 C 
BRANCH   3   4
ATOM      4  C   UNL     1      30.547  26.986  69.591  0.00  0.00    +0.000 C 
BRANCH   4   5
ATOM      5  C   UNL     1      31.189  26.462  68.316  0.00  0.00    +0.000 C 
BRANCH   5   6
ATOM      6  C   UNL     1      30.522  25.158  67.913  0.00  0.00    +0.000 C 
BRANCH   6   7
ATOM      7  C   UNL     1      31.587  24.115  67.612  0.00  0.00    +0.000 A 
ATOM      8  C   UNL     1      32.826  24.330  68.171  0.00  0.00    +0.000 A 
ATOM      9  C   UNL     1      33.839  23.370  68.072  0.00  0.00    +0.000 A 
ATOM     10  C   UNL     1      33.537  22.171  67.394  0.00  0.00    +0.000 A 
ATOM     11  C   UNL     1      32.305  21.982  66.813  0.00  0.00    +0.000 A 
ATOM     12  C   UNL     1      31.329  22.951  66.931  0.00  0.00    +0.000 A 
BRANCH  10  13
ATOM     13  O   UNL     1      34.445  21.177  67.267  0.00  0.00    +0.000 OA
ATOM     14  H   UNL     1      34.147  20.257  67.012  0.00  0.00    +0.000 HD
ENDBRANCH  10  13
ENDBRANCH   6   7
ENDBRANCH   5   6
ENDBRANCH   4   5
ENDBRANCH   3   4
ENDBRANCH   2   3
BRANCH   2  15
ATOM     15  C   UNL     1      31.022  24.938  71.595  0.00  0.00    +0.000 C 
BRANCH  15  16
ATOM     16  C   UNL     1      31.731  23.607  71.786  0.00  0.00    +0.000 C 
BRANCH  16  17
ATOM     17  C   UNL     1      31.055  22.546  70.934  0.00  0.00    +0.000 A 
ATOM     18  C   UNL     1      31.739  21.400  70.596  0.00  0.00    +0.000 A 
ATOM     19  C   UNL     1      31.136  20.402  69.821  0.00  0.00    +0.000 A 
ATOM     20  C   UNL     1      29.801  20.608  69.416  0.00  0.00    +0.000 A 
ATOM     21  C   UNL     1      29.139  21.770  69.736  0.00  0.00    +0.000 A 
ATOM     22  C   UNL     1      29.764  22.733  70.502  0.00  0.00    +0.000 A 
BRANCH  20  23
ATOM     23  O   UNL     1      29.131  19.688  68.687  0.00  0.00    +0.000 OA
ATOM     24  H   UNL     1      28.650  19.963  67.854  0.00  0.00    +0.000 HD
ENDBRANCH  20  23
ENDBRANCH  16  17
ENDBRANCH  15  16
ENDBRANCH   2  15
TORSDOF 10
ENDMDL
MODEL 6
REMARK VINA RESULT:    -7.301      2.091      6.482
REMARK INTER + INTRA:         -13.220
REMARK INTER:                 -10.017
REMARK INTRA:                  -3.203
REMARK UNBOUND:                -2.078
REMARK  Name = 
REMARK  10 active torsions:
REMARK  status: ('A' for Active; 'I' for Inactive)
REMARK    1  A    between atoms: C_2  and  C_3
REMARK    2  A    between atoms: C_2  and  C_14
REMARK    3  A    between atoms: C_3  and  C_4
REMARK    4  A    between atoms: C_4  and  C_5
REMARK    5  A    between atoms: C_5  and  C_6
REMARK    6  A    between atoms: C_6  and  C_7
REMARK    7  A    between atoms: C_10  and  O_11
REMARK    8  A    between atoms: C_14  and  C_15
REMARK    9  A    between atoms: C_15  and  C_16
REMARK   10  A    between atoms: C_19  and  O_20
REMARK                            x       y       z     vdW  Elec       q    Type
REMARK                         _______ _______ _______ _____ _____    ______ ____
ROOT
ATOM      1  O   UNL     1      31.798  21.965  66.031  0.00  0.00    +0.000 OA
ATOM      2  C   UNL     1      32.432  22.392  67.047  0.00  0.00    +0.000 C 
ENDROOT
BRANCH   2   3
ATOM      3  C   UNL     1      33.046  21.407  68.028  0.00  0.00    +0.000 C 
BRANCH   3   4
ATOM      4  C   UNL     1      31.947  20.572  68.663  0.00  0.00    +0.000 C 
BRANCH   4   5
ATOM      5  C   UNL     1      31.254  21.384  69.745  0.00  0.00    +0.000 C 
BRANCH   5   6
ATOM      6  C   UNL     1      32.292  21.924  70.715  0.00  0.00    +0.000 C 
BRANCH   6   7
ATOM      7  C   UNL     1      31.975  23.375  71.042  0.00  0.00    +0.000 A 
ATOM      8  C   UNL     1      30.865  23.909  70.428  0.00  0.00    +0.000 A 
ATOM      9  C   UNL     1      30.403  25.188  70.758  0.00  0.00    +0.000 A 
ATOM     10  C   UNL     1      31.107  25.898  71.753  0.00  0.00    +0.000 A 
ATOM     11  C   UNL     1      32.231  25.365  72.337  0.00  0.00    +0.000 A 
ATOM     12  C   UNL     1      32.658  24.100  71.987  0.00  0.00    +0.000 A 
BRANCH  10  13
ATOM     13  O   UNL     1      30.721  27.132  72.154  0.00  0.00    +0.000 OA
ATOM     14  H   UNL     1      30.479  27.824  71.474  0.00  0.00    +0.000 HD
ENDBRANCH  10  13
ENDBRANCH   6   7
ENDBRANCH   5   6
ENDBRANCH   4   5
ENDBRANCH   3   4
ENDBRANCH   2   3
BRANCH   2  15
ATOM     15  C   UNL     1      32.578  23.887  67.279  0.00  0.00    +0.000 C 
BRANCH  15  16
ATOM     16  C   UNL     1      33.956  24.179  67.851  0.00  0.00    +0.000 C 
BRANCH  16  17
ATOM     17  C   UNL     1      33.920  25.493  68.613  0.00  0.00    +0.000 A 
ATOM     18  C   UNL     1      32.951  26.428  68.323  0.00  0.00    +0.000 A 
ATOM     19  C   UNL     1      32.890  27.642  69.017  0.00  0.00    +0.000 A 
ATOM     20  C   UNL     1      33.842  27.863  70.032  0.00  0.00    +0.000 A 
ATOM     21  C   UNL     1      34.822  26.934  70.292  0.00  0.00    +0.000 A 
ATOM     22  C   UNL     1      34.854  25.747  69.588  0.00  0.00    +0.000 A 
BRANCH  20  23
ATOM     23  O   UNL     1      33.844  28.996  70.770  0.00  0.00    +0.000 OA
ATOM     24  H   UNL     1      34.698  29.495  70.919  0.00  0.00    +0.000 HD
ENDBRANCH  20  23
ENDBRANCH  16  17
ENDBRANCH  15  16
ENDBRANCH   2  15
TORSDOF 10
ENDMDL
MODEL 7
REMARK VINA RESULT:    -7.278      4.556      7.168
REMARK INTER + INTRA:         -13.186
REMARK INTER:                 -11.108
REMARK INTRA:                  -2.078
REMARK UNBOUND:                -2.078
REMARK  Name = 
REMARK  10 active torsions:
REMARK  status: ('A' for Active; 'I' for Inactive)
REMARK    1  A    between atoms: C_2  and  C_3
REMARK    2  A    between atoms: C_2  and  C_14
REMARK    3  A    between atoms: C_3  and  C_4
REMARK    4  A    between atoms: C_4  and  C_5
REMARK    5  A    between atoms: C_5  and  C_6
REMARK    6  A    between atoms: C_6  and  C_7
REMARK    7  A    between atoms: C_10  and  O_11
REMARK    8  A    between atoms: C_14  and  C_15
REMARK    9  A    between atoms: C_15  and  C_16
REMARK   10  A    between atoms: C_19  and  O_20
REMARK                            x       y       z     vdW  Elec       q    Type
REMARK                         _______ _______ _______ _____ _____    ______ ____
ROOT
ATOM      1  O   UNL     1      32.130  23.883  71.173  0.00  0.00    +0.000 OA
ATOM      2  C   UNL     1      32.925  24.667  70.566  0.00  0.00    +0.000 C 
ENDROOT
BRANCH   2   3
ATOM      3  C   UNL     1      33.427  25.925  71.255  0.00  0.00    +0.000 C 
BRANCH   3   4
ATOM      4  C   UNL     1      32.497  27.083  70.937  0.00  0.00    +0.000 C 
BRANCH   4   5
ATOM      5  C   UNL     1      33.235  28.108  70.091  0.00  0.00    +0.000 C 
BRANCH   5   6
ATOM      6  C   UNL     1      34.729  27.837  70.158  0.00  0.00    +0.000 C 
BRANCH   6   7
ATOM      7  C   UNL     1      35.439  29.047  70.745  0.00  0.00    +0.000 A 
ATOM      8  C   UNL     1      36.500  29.542  70.020  0.00  0.00    +0.000 A 
ATOM      9  C   UNL     1      37.138  30.729  70.396  0.00  0.00    +0.000 A 
ATOM     10  C   UNL     1      36.643  31.405  71.531  0.00  0.00    +0.000 A 
ATOM     11  C   UNL     1      35.603  30.884  72.263  0.00  0.00    +0.000 A 
ATOM     12  C   UNL     1      34.996  29.710  71.863  0.00  0.00    +0.000 A 
BRANCH  10  13
ATOM     13  O   UNL     1      37.182  32.571  71.956  0.00  0.00    +0.000 OA
ATOM     14  H   UNL     1      38.052  32.886  71.577  0.00  0.00    +0.000 HD
ENDBRANCH  10  13
ENDBRANCH   6   7
ENDBRANCH   5   6
ENDBRANCH   4   5
ENDBRANCH   3   4
ENDBRANCH   2   3
BRANCH   2  15
ATOM     15  C   UNL     1      33.375  24.346  69.150  0.00  0.00    +0.000 C 
BRANCH  15  16
ATOM     16  C   UNL     1      32.162  24.275  68.237  0.00  0.00    +0.000 C 
BRANCH  16  17
ATOM     17  C   UNL     1      31.914  25.641  67.619  0.00  0.00    +0.000 A 
ATOM     18  C   UNL     1      30.687  26.250  67.768  0.00  0.00    +0.000 A 
ATOM     19  C   UNL     1      30.436  27.511  67.218  0.00  0.00    +0.000 A 
ATOM     20  C   UNL     1      31.488  28.142  66.523  0.00  0.00    +0.000 A 
ATOM     21  C   UNL     1      32.699  27.512  66.355  0.00  0.00    +0.000 A 
ATOM     22  C   UNL     1      32.913  26.267  66.911  0.00  0.00    +0.000 A 
BRANCH  20  23
ATOM     23  O   UNL     1      31.344  29.372  65.980  0.00  0.00    +0.000 OA
ATOM     24  H   UNL     1      30.995  29.469  65.047  0.00  0.00    +0.000 HD
ENDBRANCH  20  23
ENDBRANCH  16  17
ENDBRANCH  15  16
ENDBRANCH   2  15
TORSDOF 10
ENDMDL
MODEL 8
REMARK VINA RESULT:    -7.263      2.100      5.678
REMARK INTER + INTRA:         -13.163
REMARK INTER:                 -10.139
REMARK INTRA:                  -3.025
REMARK UNBOUND:                -2.078
REMARK  Name = 
REMARK  10 active torsions:
REMARK  status: ('A' for Active; 'I' for Inactive)
REMARK    1  A    between atoms: C_2  and  C_3
REMARK    2  A    between atoms: C_2  and  C_14
REMARK    3  A    between atoms: C_3  and  C_4
REMARK    4  A    between atoms: C_4  and  C_5
REMARK    5  A    between atoms: C_5  and  C_6
REMARK    6  A    between atoms: C_6  and  C_7
REMARK    7  A    between atoms: C_10  and  O_11
REMARK    8  A    between atoms: C_14  and  C_15
REMARK    9  A    between atoms: C_15  and  C_16
REMARK   10  A    between atoms: C_19  and  O_20
REMARK                            x       y       z     vdW  Elec       q    Type
REMARK                         _______ _______ _______ _____ _____    ______ ____
ROOT
ATOM      1  O   UNL     1      31.585  21.841  65.781  0.00  0.00    +0.000 OA
ATOM      2  C   UNL     1      31.832  21.920  67.026  0.00  0.00    +0.000 C 
ENDROOT
BRANCH   2   3
ATOM      3  C   UNL     1      33.241  21.668  67.538  0.00  0.00    +0.000 C 
BRANCH   3   4
ATOM      4  C   UNL     1      34.149  22.806  67.106  0.00  0.00    +0.000 C 
BRANCH   4   5
ATOM      5  C   UNL     1      34.203  23.857  68.204  0.00  0.00    +0.000 C 
BRANCH   5   6
ATOM      6  C   UNL     1      33.556  25.140  67.709  0.00  0.00    +0.000 C 
BRANCH   6   7
ATOM      7  C   UNL     1      33.735  26.233  68.750  0.00  0.00    +0.000 A 
ATOM      8  C   UNL     1      33.060  27.411  68.519  0.00  0.00    +0.000 A 
ATOM      9  C   UNL     1      33.044  28.432  69.476  0.00  0.00    +0.000 A 
ATOM     10  C   UNL     1      33.728  28.202  70.687  0.00  0.00    +0.000 A 
ATOM     11  C   UNL     1      34.423  27.034  70.893  0.00  0.00    +0.000 A 
ATOM     12  C   UNL     1      34.418  26.047  69.927  0.00  0.00    +0.000 A 
BRANCH  10  13
ATOM     13  O   UNL     1      33.749  29.122  71.679  0.00  0.00    +0.000 OA
ATOM     14  H   UNL     1      33.052  29.098  72.396  0.00  0.00    +0.000 HD
ENDBRANCH  10  13
ENDBRANCH   6   7
ENDBRANCH   5   6
ENDBRANCH   4   5
ENDBRANCH   3   4
ENDBRANCH   2   3
BRANCH   2  15
ATOM     15  C   UNL     1      30.720  22.265  68.001  0.00  0.00    +0.000 C 
BRANCH  15  16
ATOM     16  C   UNL     1      31.210  22.053  69.425  0.00  0.00    +0.000 C 
BRANCH  16  17
ATOM     17  C   UNL     1      31.121  23.361  70.192  0.00  0.00    +0.000 A 
ATOM     18  C   UNL     1      31.663  23.455  71.455  0.00  0.00    +0.000 A 
ATOM     19  C   UNL     1      31.604  24.651  72.178  0.00  0.00    +0.000 A 
ATOM     20  C   UNL     1      30.987  25.758  71.561  0.00  0.00    +0.000 A 
ATOM     21  C   UNL     1      30.424  25.644  70.312  0.00  0.00    +0.000 A 
ATOM     22  C   UNL     1      30.500  24.448  69.625  0.00  0.00    +0.000 A 
BRANCH  20  23
ATOM     23  O   UNL     1      30.906  26.960  72.174  0.00  0.00    +0.000 OA
ATOM     24  H   UNL     1      30.586  27.018  73.120  0.00  0.00    +0.000 HD
ENDBRANCH  20  23
ENDBRANCH  16  17
ENDBRANCH  15  16
ENDBRANCH   2  15
TORSDOF 10
ENDMDL
MODEL 9
REMARK VINA RESULT:    -7.231      0.874      4.007
REMARK INTER + INTRA:         -13.113
REMARK INTER:                 -10.464
REMARK INTRA:                  -2.649
REMARK UNBOUND:                -2.078
REMARK  Name = 
REMARK  10 active torsions:
REMARK  status: ('A' for Active; 'I' for Inactive)
REMARK    1  A    between atoms: C_2  and  C_3
REMARK    2  A    between atoms: C_2  and  C_14
REMARK    3  A    between atoms: C_3  and  C_4
REMARK    4  A    between atoms: C_4  and  C_5
REMARK    5  A    between atoms: C_5  and  C_6
REMARK    6  A    between atoms: C_6  and  C_7
REMARK    7  A    between atoms: C_10  and  O_11
REMARK    8  A    between atoms: C_14  and  C_15
REMARK    9  A    between atoms: C_15  and  C_16
REMARK   10  A    between atoms: C_19  and  O_20
REMARK                            x       y       z     vdW  Elec       q    Type
REMARK                         _______ _______ _______ _____ _____    ______ ____
ROOT
ATOM      1  O   UNL     1      30.475  26.792  72.086  0.00  0.00    +0.000 OA
ATOM      2  C   UNL     1      31.484  26.172  71.626  0.00  0.00    +0.000 C 
ENDROOT
BRANCH   2   3
ATOM      3  C   UNL     1      32.206  25.150  72.488  0.00  0.00    +0.000 C 
BRANCH   3   4
ATOM      4  C   UNL     1      32.391  23.863  71.702  0.00  0.00    +0.000 C 
BRANCH   4   5
ATOM      5  C   UNL     1      31.380  22.830  72.175  0.00  0.00    +0.000 C 
BRANCH   5   6
ATOM      6  C   UNL     1      30.302  22.655  71.118  0.00  0.00    +0.000 C 
BRANCH   6   7
ATOM      7  C   UNL     1      30.608  21.424  70.280  0.00  0.00    +0.000 A 
ATOM      8  C   UNL     1      29.594  20.972  69.467  0.00  0.00    +0.000 A 
ATOM      9  C   UNL     1      29.808  19.932  68.556  0.00  0.00    +0.000 A 
ATOM     10  C   UNL     1      31.104  19.378  68.492  0.00  0.00    +0.000 A 
ATOM     11  C   UNL     1      32.100  19.818  69.331  0.00  0.00    +0.000 A 
ATOM     12  C   UNL     1      31.853  20.847  70.218  0.00  0.00    +0.000 A 
BRANCH  10  13
ATOM     13  O   UNL     1      31.411  18.385  67.626  0.00  0.00    +0.000 OA
ATOM     14  H   UNL     1      32.361  18.096  67.515  0.00  0.00    +0.000 HD
ENDBRANCH  10  13
ENDBRANCH   6   7
ENDBRANCH   5   6
ENDBRANCH   4   5
ENDBRANCH   3   4
ENDBRANCH   2   3
BRANCH   2  15
ATOM     15  C   UNL     1      31.969  26.452  70.213  0.00  0.00    +0.000 C 
BRANCH  15  16
ATOM     16  C   UNL     1      30.943  25.944  69.214  0.00  0.00    +0.000 C 
BRANCH  16  17
ATOM     17  C   UNL     1      31.545  24.809  68.402  0.00  0.00    +0.000 A 
ATOM     18  C   UNL     1      32.906  24.600  68.419  0.00  0.00    +0.000 A 
ATOM     19  C   UNL     1      33.484  23.556  67.688  0.00  0.00    +0.000 A 
ATOM     20  C   UNL     1      32.622  22.719  66.952  0.00  0.00    +0.000 A 
ATOM     21  C   UNL     1      31.268  22.956  66.919  0.00  0.00    +0.000 A 
ATOM     22  C   UNL     1      30.730  23.995  67.652  0.00  0.00    +0.000 A 
BRANCH  20  23
ATOM     23  O   UNL     1      33.089  21.671  66.236  0.00  0.00    +0.000 OA
ATOM     24  H   UNL     1      33.633  21.831  65.412  0.00  0.00    +0.000 HD
ENDBRANCH  20  23
ENDBRANCH  16  17
ENDBRANCH  15  16
ENDBRANCH   2  15
TORSDOF 10
ENDMDL
