MODEL 1
REMARK VINA RESULT:    -5.380      0.000      0.000
REMARK INTER + INTRA:          -8.326
REMARK INTER:                  -7.612
REMARK INTRA:                  -0.715
REMARK UNBOUND:                -0.745
REMARK  Name = 
REMARK  11 active torsions:
REMARK  status: ('A' for Active; 'I' for Inactive)
REMARK    1  A    between atoms: C_1  and  O_2
REMARK    2  A    between atoms: O_2  and  C_3
REMARK    3  A    between atoms: C_6  and  C_7
REMARK    4  A    between atoms: C_8  and  C_9
REMARK    5  A    between atoms: C_9  and  C_11
REMARK    6  A    between atoms: C_13  and  O_14
REMARK    7  A    between atoms: O_14  and  C_15
REMARK    8  A    between atoms: C_16  and  O_17
REMARK    9  A    between atoms: O_17  and  C_18
REMARK   10  A    between atoms: C_19  and  O_20
REMARK   11  A    between atoms: O_20  and  C_21
REMARK                            x       y       z     vdW  Elec       q    Type
REMARK                         _______ _______ _______ _____ _____    ______ ____
ROOT
ATOM      1  C   UNL     1      53.595 -28.701  22.071  0.00  0.00    +0.000 C 
ATOM      2  O   UNL     1      53.388 -29.767  21.411  0.00  0.00    +0.000 OA
ENDROOT
BRANCH   1   3
ATOM      3  C   UNL     1      54.757 -28.625  23.047  0.00  0.00    +0.000 A 
ATOM      4  C   UNL     1      55.077 -27.413  23.636  0.00  0.00    +0.000 A 
ATOM      5  C   UNL     1      56.332 -27.406  24.289  0.00  0.00    +0.000 A 
ATOM      6  C   UNL     1      56.998 -28.490  24.645  0.00  0.00    +0.000 A 
ATOM      7  C   UNL     1      56.590 -29.667  24.080  0.00  0.00    +0.000 A 
ATOM      8  C   UNL     1      55.445 -29.726  23.322  0.00  0.00    +0.000 A 
BRANCH   5   9
ATOM      9  O   UNL     1      56.918 -26.145  24.582  0.00  0.00    +0.000 OA
ATOM     10  C   UNL     1      56.114 -25.088  25.082  0.00  0.00    +0.000 C 
ENDBRANCH   5   9
BRANCH   6  11
ATOM     11  O   UNL     1      58.078 -28.436  25.565  0.00  0.00    +0.000 OA
ATOM     12  C   UNL     1      57.863 -28.756  26.932  0.00  0.00    +0.000 C 
ENDBRANCH   6  11
BRANCH   7  13
ATOM     13  O   UNL     1      57.360 -30.842  24.281  0.00  0.00    +0.000 OA
ATOM     14  C   UNL     1      56.823 -32.111  23.935  0.00  0.00    +0.000 C 
ENDBRANCH   7  13
ENDBRANCH   1   3
BRANCH   1  16
ATOM     15  C   UNL     1      51.584 -27.354  22.677  0.00  0.00    +0.000 C 
ATOM     16  C   UNL     1      52.680 -27.503  21.885  0.00  0.00    +0.000 C 
BRANCH  15  20
ATOM     17  C   UNL     1      49.193 -23.869  22.053  0.00  0.00    +0.000 A 
ATOM     18  C   UNL     1      49.328 -24.778  21.016  0.00  0.00    +0.000 A 
ATOM     19  C   UNL     1      49.951 -25.990  21.393  0.00  0.00    +0.000 A 
ATOM     20  C   UNL     1      50.668 -26.154  22.491  0.00  0.00    +0.000 A 
ATOM     21  C   UNL     1      50.542 -25.188  23.449  0.00  0.00    +0.000 A 
ATOM     22  C   UNL     1      49.840 -24.033  23.201  0.00  0.00    +0.000 A 
BRANCH  17  24
ATOM     23  C   UNL     1      47.009 -22.916  21.447  0.00  0.00    +0.000 C 
ATOM     24  O   UNL     1      48.348 -22.741  21.885  0.00  0.00    +0.000 OA
ENDBRANCH  17  24
ENDBRANCH  15  20
ENDBRANCH   1  16
TORSDOF 7
ENDMDL
MODEL 2
REMARK VINA RESULT:    -5.332      1.290      2.885
REMARK INTER + INTRA:          -8.258
REMARK INTER:                  -7.592
REMARK INTRA:                  -0.666
REMARK UNBOUND:                -0.745
REMARK  Name = 
REMARK  11 active torsions:
REMARK  status: ('A' for Active; 'I' for Inactive)
REMARK    1  A    between atoms: C_1  and  O_2
REMARK    2  A    between atoms: O_2  and  C_3
REMARK    3  A    between atoms: C_6  and  C_7
REMARK    4  A    between atoms: C_8  and  C_9
REMARK    5  A    between atoms: C_9  and  C_11
REMARK    6  A    between atoms: C_13  and  O_14
REMARK    7  A    between atoms: O_14  and  C_15
REMARK    8  A    between atoms: C_16  and  O_17
REMARK    9  A    between atoms: O_17  and  C_18
REMARK   10  A    between atoms: C_19  and  O_20
REMARK   11  A    between atoms: O_20  and  C_21
REMARK                            x       y       z     vdW  Elec       q    Type
REMARK                         _______ _______ _______ _____ _____    ______ ____
ROOT
ATOM      1  C   UNL     1      54.824 -28.289  22.542  0.00  0.00    +0.000 C 
ATOM      2  O   UNL     1      54.980 -29.151  21.621  0.00  0.00    +0.000 OA
ENDROOT
BRANCH   1   3
ATOM      3  C   UNL     1      55.735 -28.304  23.759  0.00  0.00    +0.000 A 
ATOM      4  C   UNL     1      56.575 -29.385  23.970  0.00  0.00    +0.000 A 
ATOM      5  C   UNL     1      57.152 -29.419  25.262  0.00  0.00    +0.000 A 
ATOM      6  C   UNL     1      57.211 -28.386  26.083  0.00  0.00    +0.000 A 
ATOM      7  C   UNL     1      56.407 -27.322  25.782  0.00  0.00    +0.000 A 
ATOM      8  C   UNL     1      55.711 -27.276  24.598  0.00  0.00    +0.000 A 
BRANCH   5   9
ATOM      9  O   UNL     1      57.703 -30.650  25.706  0.00  0.00    +0.000 OA
ATOM     10  C   UNL     1      57.676 -31.788  24.858  0.00  0.00    +0.000 C 
ENDBRANCH   5   9
BRANCH   6  11
ATOM     11  O   UNL     1      58.066 -28.381  27.217  0.00  0.00    +0.000 OA
ATOM     12  C   UNL     1      57.564 -28.770  28.487  0.00  0.00    +0.000 C 
ENDBRANCH   6  11
BRANCH   7  13
ATOM     13  O   UNL     1      56.289 -26.251  26.707  0.00  0.00    +0.000 OA
ATOM     14  C   UNL     1      55.080 -26.066  27.428  0.00  0.00    +0.000 C 
ENDBRANCH   7  13
ENDBRANCH   1   3
BRANCH   1  16
ATOM     15  C   UNL     1      52.460 -27.540  22.817  0.00  0.00    +0.000 C 
ATOM     16  C   UNL     1      53.728 -27.243  22.426  0.00  0.00    +0.000 C 
BRANCH  15  20
ATOM     17  C   UNL     1      49.537 -24.454  22.388  0.00  0.00    +0.000 A 
ATOM     18  C   UNL     1      49.767 -25.307  21.319  0.00  0.00    +0.000 A 
ATOM     19  C   UNL     1      50.585 -26.416  21.637  0.00  0.00    +0.000 A 
ATOM     20  C   UNL     1      51.364 -26.493  22.701  0.00  0.00    +0.000 A 
ATOM     21  C   UNL     1      51.131 -25.581  23.692  0.00  0.00    +0.000 A 
ATOM     22  C   UNL     1      50.249 -24.543  23.505  0.00  0.00    +0.000 A 
BRANCH  17  24
ATOM     23  C   UNL     1      48.358 -22.741  21.076  0.00  0.00    +0.000 C 
ATOM     24  O   UNL     1      48.522 -23.467  22.285  0.00  0.00    +0.000 OA
ENDBRANCH  17  24
ENDBRANCH  15  20
ENDBRANCH   1  16
TORSDOF 7
ENDMDL
MODEL 3
REMARK VINA RESULT:    -5.285      2.110      4.367
REMARK INTER + INTRA:          -8.192
REMARK INTER:                  -7.382
REMARK INTRA:                  -0.810
REMARK UNBOUND:                -0.745
REMARK  Name = 
REMARK  11 active torsions:
REMARK  status: ('A' for Active; 'I' for Inactive)
REMARK    1  A    between atoms: C_1  and  O_2
REMARK    2  A    between atoms: O_2  and  C_3
REMARK    3  A    between atoms: C_6  and  C_7
REMARK    4  A    between atoms: C_8  and  C_9
REMARK    5  A    between atoms: C_9  and  C_11
REMARK    6  A    between atoms: C_13  and  O_14
REMARK    7  A    between atoms: O_14  and  C_15
REMARK    8  A    between atoms: C_16  and  O_17
REMARK    9  A    between atoms: O_17  and  C_18
REMARK   10  A    between atoms: C_19  and  O_20
REMARK   11  A    between atoms: O_20  and  C_21
REMARK                            x       y       z     vdW  Elec       q    Type
REMARK                         _______ _______ _______ _____ _____    ______ ____
ROOT
ATOM      1  C   UNL     1      55.670 -27.532  23.909  0.00  0.00    +0.000 C 
ATOM      2  O   UNL     1      56.812 -27.246  24.387  0.00  0.00    +0.000 OA
ENDROOT
BRANCH   1   3
ATOM      3  C   UNL     1      55.428 -28.894  23.279  0.00  0.00    +0.000 A 
ATOM      4  C   UNL     1      55.789 -30.039  23.969  0.00  0.00    +0.000 A 
ATOM      5  C   UNL     1      55.782 -31.212  23.176  0.00  0.00    +0.000 A 
ATOM      6  C   UNL     1      55.165 -31.327  22.014  0.00  0.00    +0.000 A 
ATOM      7  C   UNL     1      54.773 -30.162  21.415  0.00  0.00    +0.000 A 
ATOM      8  C   UNL     1      54.869 -28.961  22.077  0.00  0.00    +0.000 A 
BRANCH   5   9
ATOM      9  O   UNL     1      56.490 -32.343  23.664  0.00  0.00    +0.000 OA
ATOM     10  C   UNL     1      57.633 -32.165  24.486  0.00  0.00    +0.000 C 
ENDBRANCH   5   9
BRANCH   6  11
ATOM     11  O   UNL     1      54.921 -32.593  21.419  0.00  0.00    +0.000 OA
ATOM     12  C   UNL     1      53.668 -33.235  21.603  0.00  0.00    +0.000 C 
ENDBRANCH   6  11
BRANCH   7  13
ATOM     13  O   UNL     1      54.259 -30.194  20.092  0.00  0.00    +0.000 OA
ATOM     14  C   UNL     1      52.898 -29.867  19.851  0.00  0.00    +0.000 C 
ENDBRANCH   7  13
ENDBRANCH   1   3
BRANCH   1  16
ATOM     15  C   UNL     1      53.441 -26.760  24.723  0.00  0.00    +0.000 C 
ATOM     16  C   UNL     1      54.545 -26.512  23.968  0.00  0.00    +0.000 C 
BRANCH  15  20
ATOM     17  C   UNL     1      50.407 -23.752  24.747  0.00  0.00    +0.000 A 
ATOM     18  C   UNL     1      50.440 -24.656  23.697  0.00  0.00    +0.000 A 
ATOM     19  C   UNL     1      51.335 -25.733  23.896  0.00  0.00    +0.000 A 
ATOM     20  C   UNL     1      52.315 -25.740  24.782  0.00  0.00    +0.000 A 
ATOM     21  C   UNL     1      52.263 -24.780  25.753  0.00  0.00    +0.000 A 
ATOM     22  C   UNL     1      51.333 -23.769  25.699  0.00  0.00    +0.000 A 
BRANCH  17  24
ATOM     23  C   UNL     1      48.454 -22.795  25.893  0.00  0.00    +0.000 C 
ATOM     24  O   UNL     1      49.366 -22.789  24.805  0.00  0.00    +0.000 OA
ENDBRANCH  17  24
ENDBRANCH  15  20
ENDBRANCH   1  16
TORSDOF 7
ENDMDL
MODEL 4
REMARK VINA RESULT:    -5.232      2.048      3.883
REMARK INTER + INTRA:          -8.118
REMARK INTER:                  -7.428
REMARK INTRA:                  -0.690
REMARK UNBOUND:                -0.745
REMARK  Name = 
REMARK  11 active torsions:
REMARK  status: ('A' for Active; 'I' for Inactive)
REMARK    1  A    between atoms: C_1  and  O_2
REMARK    2  A    between atoms: O_2  and  C_3
REMARK    3  A    between atoms: C_6  and  C_7
REMARK    4  A    between atoms: C_8  and  C_9
REMARK    5  A    between atoms: C_9  and  C_11
REMARK    6  A    between atoms: C_13  and  O_14
REMARK    7  A    between atoms: O_14  and  C_15
REMARK    8  A    between atoms: C_16  and  O_17
REMARK    9  A    between atoms: O_17  and  C_18
REMARK   10  A    between atoms: C_19  and  O_20
REMARK   11  A    between atoms: O_20  and  C_21
REMARK                            x       y       z     vdW  Elec       q    Type
REMARK                         _______ _______ _______ _____ _____    ______ ____
ROOT
ATOM      1  C   UNL     1      54.580 -24.885  27.039  0.00  0.00    +0.000 C 
ATOM      2  O   UNL     1      54.642 -24.304  28.167  0.00  0.00    +0.000 OA
ENDROOT
BRANCH   1   3
ATOM      3  C   UNL     1      55.563 -25.994  26.701  0.00  0.00    +0.000 A 
ATOM      4  C   UNL     1      55.864 -26.260  25.376  0.00  0.00    +0.000 A 
ATOM      5  C   UNL     1      56.555 -27.479  25.177  0.00  0.00    +0.000 A 
ATOM      6  C   UNL     1      57.185 -28.145  26.127  0.00  0.00    +0.000 A 
ATOM      7  C   UNL     1      56.895 -27.790  27.415  0.00  0.00    +0.000 A 
ATOM      8  C   UNL     1      56.121 -26.688  27.686  0.00  0.00    +0.000 A 
BRANCH   5   9
ATOM      9  O   UNL     1      56.569 -28.024  23.866  0.00  0.00    +0.000 OA
ATOM     10  C   UNL     1      55.347 -28.292  23.195  0.00  0.00    +0.000 C 
ENDBRANCH   5   9
BRANCH   6  11
ATOM     11  O   UNL     1      58.116 -29.175  25.827  0.00  0.00    +0.000 OA
ATOM     12  C   UNL     1      57.685 -30.527  25.768  0.00  0.00    +0.000 C 
ENDBRANCH   6  11
BRANCH   7  13
ATOM     13  O   UNL     1      57.402 -28.571  28.487  0.00  0.00    +0.000 OA
ATOM     14  C   UNL     1      58.418 -28.047  29.330  0.00  0.00    +0.000 C 
ENDBRANCH   7  13
ENDBRANCH   1   3
BRANCH   1  16
ATOM     15  C   UNL     1      52.325 -25.116  25.995  0.00  0.00    +0.000 C 
ATOM     16  C   UNL     1      53.523 -24.473  26.028  0.00  0.00    +0.000 C 
BRANCH  15  20
ATOM     17  C   UNL     1      49.527 -23.851  23.026  0.00  0.00    +0.000 A 
ATOM     18  C   UNL     1      50.237 -25.022  22.815  0.00  0.00    +0.000 A 
ATOM     19  C   UNL     1      50.966 -25.462  23.944  0.00  0.00    +0.000 A 
ATOM     20  C   UNL     1      51.268 -24.704  24.983  0.00  0.00    +0.000 A 
ATOM     21  C   UNL     1      50.580 -23.529  25.099  0.00  0.00    +0.000 A 
ATOM     22  C   UNL     1      49.748 -23.094  24.095  0.00  0.00    +0.000 A 
BRANCH  17  24
ATOM     23  C   UNL     1      48.672 -23.836  20.720  0.00  0.00    +0.000 C 
ATOM     24  O   UNL     1      48.544 -23.453  22.081  0.00  0.00    +0.000 OA
ENDBRANCH  17  24
ENDBRANCH  15  20
ENDBRANCH   1  16
TORSDOF 7
ENDMDL
MODEL 5
REMARK VINA RESULT:    -5.126      1.832      3.660
REMARK INTER + INTRA:          -7.968
REMARK INTER:                  -7.223
REMARK INTRA:                  -0.745
REMARK UNBOUND:                -0.745
REMARK  Name = 
REMARK  11 active torsions:
REMARK  status: ('A' for Active; 'I' for Inactive)
REMARK    1  A    between atoms: C_1  and  O_2
REMARK    2  A    between atoms: O_2  and  C_3
REMARK    3  A    between atoms: C_6  and  C_7
REMARK    4  A    between atoms: C_8  and  C_9
REMARK    5  A    between atoms: C_9  and  C_11
REMARK    6  A    between atoms: C_13  and  O_14
REMARK    7  A    between atoms: O_14  and  C_15
REMARK    8  A    between atoms: C_16  and  O_17
REMARK    9  A    between atoms: O_17  and  C_18
REMARK   10  A    between atoms: C_19  and  O_20
REMARK   11  A    between atoms: O_20  and  C_21
REMARK                            x       y       z     vdW  Elec       q    Type
REMARK                         _______ _______ _______ _____ _____    ______ ____
ROOT
ATOM      1  C   UNL     1      54.697 -25.957  26.682  0.00  0.00    +0.000 C 
ATOM      2  O   UNL     1      54.848 -25.557  27.879  0.00  0.00    +0.000 OA
ENDROOT
BRANCH   1   3
ATOM      3  C   UNL     1      55.491 -27.150  26.174  0.00  0.00    +0.000 A 
ATOM      4  C   UNL     1      56.458 -27.722  26.984  0.00  0.00    +0.000 A 
ATOM      5  C   UNL     1      57.314 -28.623  26.306  0.00  0.00    +0.000 A 
ATOM      6  C   UNL     1      57.047 -29.172  25.135  0.00  0.00    +0.000 A 
ATOM      7  C   UNL     1      56.036 -28.603  24.412  0.00  0.00    +0.000 A 
ATOM      8  C   UNL     1      55.239 -27.626  24.961  0.00  0.00    +0.000 A 
BRANCH   5   9
ATOM      9  O   UNL     1      58.545 -28.959  26.929  0.00  0.00    +0.000 OA
ATOM     10  C   UNL     1      58.560 -29.414  28.273  0.00  0.00    +0.000 C 
ENDBRANCH   5   9
BRANCH   6  11
ATOM     11  O   UNL     1      57.772 -30.293  24.653  0.00  0.00    +0.000 OA
ATOM     12  C   UNL     1      57.351 -31.608  24.985  0.00  0.00    +0.000 C 
ENDBRANCH   6  11
BRANCH   7  13
ATOM     13  O   UNL     1      55.805 -29.027  23.077  0.00  0.00    +0.000 OA
ATOM     14  C   UNL     1      54.728 -28.477  22.333  0.00  0.00    +0.000 C 
ENDBRANCH   7  13
ENDBRANCH   1   3
BRANCH   1  16
ATOM     15  C   UNL     1      52.385 -25.327  25.987  0.00  0.00    +0.000 C 
ATOM     16  C   UNL     1      53.724 -25.244  25.759  0.00  0.00    +0.000 C 
BRANCH  15  20
ATOM     17  C   UNL     1      49.469 -23.427  23.509  0.00  0.00    +0.000 A 
ATOM     18  C   UNL     1      49.792 -22.845  24.725  0.00  0.00    +0.000 A 
ATOM     19  C   UNL     1      50.913 -23.426  25.360  0.00  0.00    +0.000 A 
ATOM     20  C   UNL     1      51.411 -24.614  25.063  0.00  0.00    +0.000 A 
ATOM     21  C   UNL     1      51.002 -25.166  23.882  0.00  0.00    +0.000 A 
ATOM     22  C   UNL     1      50.001 -24.587  23.139  0.00  0.00    +0.000 A 
BRANCH  17  24
ATOM     23  C   UNL     1      48.495 -23.129  21.271  0.00  0.00    +0.000 C 
ATOM     24  O   UNL     1      48.552 -22.774  22.645  0.00  0.00    +0.000 OA
ENDBRANCH  17  24
ENDBRANCH  15  20
ENDBRANCH   1  16
TORSDOF 7
ENDMDL
