MODEL 1
REMARK VINA RESULT:    -5.398      0.000      0.000
REMARK INTER + INTRA:          10.196
REMARK INTER:                  -6.233
REMARK INTRA:                  16.429
REMARK UNBOUND:                16.540
REMARK  Name = 
REMARK  5 active torsions:
REMARK  status: ('A' for Active; 'I' for Inactive)
REMARK    1  A    between atoms: C_1  and  O_2
REMARK    2  A    between atoms: O_2  and  C_3
REMARK    3  A    between atoms: C_6  and  C_7
REMARK    4  A    between atoms: C_19  and  O_20
REMARK    5  A    between atoms: O_20  and  C_21
REMARK                            x       y       z     vdW  Elec       q    Type
REMARK                         _______ _______ _______ _____ _____    ______ ____
ROOT
ATOM      1  C   UNL     1      54.778 -26.455  24.727  0.00  0.00    +0.000 A 
ATOM      2  C   UNL     1      56.179 -26.657  24.994  0.00  0.00    +0.000 A 
ATOM      3  C   UNL     1      56.853 -27.814  24.469  0.00  0.00    +0.000 A 
ATOM      4  O   UNL     1      58.090 -27.992  24.705  0.00  0.00    +0.000 OA
ATOM      5  C   UNL     1      56.088 -28.826  23.631  0.00  0.00    +0.000 A 
ATOM      6  C   UNL     1      56.279 -30.157  23.965  0.00  0.00    +0.000 A 
ATOM      7  C   UNL     1      55.754 -31.067  23.018  0.00  0.00    +0.000 A 
ATOM      8  C   UNL     1      54.860 -30.756  22.096  0.00  0.00    +0.000 A 
ATOM      9  C   UNL     1      54.666 -29.423  21.861  0.00  0.00    +0.000 A 
ATOM     10  C   UNL     1      55.250 -28.472  22.662  0.00  0.00    +0.000 A 
ATOM     11  O   UNL     1      54.147 -25.374  25.217  0.00  0.00    +0.000 OA
ENDROOT
BRANCH   1  15
ATOM     12  C   UNL     1      52.426 -29.180  22.427  0.00  0.00    +0.000 A 
ATOM     13  C   UNL     1      52.835 -27.995  21.839  0.00  0.00    +0.000 A 
ATOM     14  C   UNL     1      53.783 -27.273  22.602  0.00  0.00    +0.000 A 
ATOM     15  C   UNL     1      54.012 -27.467  23.889  0.00  0.00    +0.000 A 
ATOM     16  C   UNL     1      53.522 -28.624  24.426  0.00  0.00    +0.000 A 
ATOM     17  C   UNL     1      52.696 -29.447  23.699  0.00  0.00    +0.000 A 
BRANCH  12  19
ATOM     18  C   UNL     1      51.301 -29.783  20.325  0.00  0.00    +0.000 C 
ATOM     19  O   UNL     1      51.767 -30.142  21.617  0.00  0.00    +0.000 OA
ENDBRANCH  12  19
BRANCH  17  20
ATOM     20  O   UNL     1      52.127 -30.593  24.314  0.00  0.00    +0.000 OA
ATOM     21  C   UNL     1      52.888 -31.354  25.240  0.00  0.00    +0.000 C 
ENDBRANCH  17  20
ENDBRANCH   1  15
TORSDOF 3
ENDMDL
MODEL 2
REMARK VINA RESULT:    -5.174      2.072      2.802
REMARK INTER + INTRA:          10.458
REMARK INTER:                  -6.003
REMARK INTRA:                  16.462
REMARK UNBOUND:                16.540
REMARK  Name = 
REMARK  5 active torsions:
REMARK  status: ('A' for Active; 'I' for Inactive)
REMARK    1  A    between atoms: C_1  and  O_2
REMARK    2  A    between atoms: O_2  and  C_3
REMARK    3  A    between atoms: C_6  and  C_7
REMARK    4  A    between atoms: C_19  and  O_20
REMARK    5  A    between atoms: O_20  and  C_21
REMARK                            x       y       z     vdW  Elec       q    Type
REMARK                         _______ _______ _______ _____ _____    ______ ____
ROOT
ATOM      1  C   UNL     1      53.291 -26.001  25.037  0.00  0.00    +0.000 A 
ATOM      2  C   UNL     1      54.069 -25.218  25.963  0.00  0.00    +0.000 A 
ATOM      3  C   UNL     1      55.412 -25.616  26.293  0.00  0.00    +0.000 A 
ATOM      4  O   UNL     1      56.098 -24.925  27.110  0.00  0.00    +0.000 OA
ATOM      5  C   UNL     1      56.012 -26.863  25.663  0.00  0.00    +0.000 A 
ATOM      6  C   UNL     1      56.654 -27.730  26.532  0.00  0.00    +0.000 A 
ATOM      7  C   UNL     1      57.405 -28.739  25.885  0.00  0.00    +0.000 A 
ATOM      8  C   UNL     1      57.256 -29.089  24.620  0.00  0.00    +0.000 A 
ATOM      9  C   UNL     1      56.552 -28.223  23.828  0.00  0.00    +0.000 A 
ATOM     10  C   UNL     1      55.900 -27.142  24.370  0.00  0.00    +0.000 A 
ATOM     11  O   UNL     1      52.036 -25.629  24.728  0.00  0.00    +0.000 OA
ENDROOT
BRANCH   1  15
ATOM     12  C   UNL     1      54.763 -29.552  23.174  0.00  0.00    +0.000 A 
ATOM     13  C   UNL     1      54.718 -28.382  22.434  0.00  0.00    +0.000 A 
ATOM     14  C   UNL     1      54.427 -27.229  23.200  0.00  0.00    +0.000 A 
ATOM     15  C   UNL     1      53.891 -27.248  24.408  0.00  0.00    +0.000 A 
ATOM     16  C   UNL     1      53.904 -28.449  25.059  0.00  0.00    +0.000 A 
ATOM     17  C   UNL     1      54.300 -29.598  24.417  0.00  0.00    +0.000 A 
BRANCH  12  19
ATOM     18  C   UNL     1      54.976 -31.147  21.315  0.00  0.00    +0.000 C 
ATOM     19  O   UNL     1      55.382 -30.692  22.597  0.00  0.00    +0.000 OA
ENDBRANCH  12  19
BRANCH  17  20
ATOM     20  O   UNL     1      54.213 -30.845  25.090  0.00  0.00    +0.000 OA
ATOM     21  C   UNL     1      54.440 -30.913  26.491  0.00  0.00    +0.000 C 
ENDBRANCH  17  20
ENDBRANCH   1  15
TORSDOF 3
ENDMDL
MODEL 3
REMARK VINA RESULT:    -5.152      2.108      4.691
REMARK INTER + INTRA:          10.484
REMARK INTER:                  -6.085
REMARK INTRA:                  16.569
REMARK UNBOUND:                16.540
REMARK  Name = 
REMARK  5 active torsions:
REMARK  status: ('A' for Active; 'I' for Inactive)
REMARK    1  A    between atoms: C_1  and  O_2
REMARK    2  A    between atoms: O_2  and  C_3
REMARK    3  A    between atoms: C_6  and  C_7
REMARK    4  A    between atoms: C_19  and  O_20
REMARK    5  A    between atoms: O_20  and  C_21
REMARK                            x       y       z     vdW  Elec       q    Type
REMARK                         _______ _______ _______ _____ _____    ______ ____
ROOT
ATOM      1  C   UNL     1      57.662 -29.232  25.489  0.00  0.00    +0.000 A 
ATOM      2  C   UNL     1      57.327 -30.372  24.674  0.00  0.00    +0.000 A 
ATOM      3  C   UNL     1      56.111 -30.376  23.905  0.00  0.00    +0.000 A 
ATOM      4  O   UNL     1      55.815 -31.382  23.187  0.00  0.00    +0.000 OA
ATOM      5  C   UNL     1      55.178 -29.176  23.952  0.00  0.00    +0.000 A 
ATOM      6  C   UNL     1      53.835 -29.461  24.135  0.00  0.00    +0.000 A 
ATOM      7  C   UNL     1      52.980 -28.353  23.925  0.00  0.00    +0.000 A 
ATOM      8  C   UNL     1      53.376 -27.093  23.916  0.00  0.00    +0.000 A 
ATOM      9  C   UNL     1      54.721 -26.878  23.802  0.00  0.00    +0.000 A 
ATOM     10  C   UNL     1      55.611 -27.923  23.866  0.00  0.00    +0.000 A 
ATOM     11  O   UNL     1      58.799 -29.228  26.208  0.00  0.00    +0.000 OA
ENDROOT
BRANCH   1  15
ATOM     12  C   UNL     1      55.182 -25.767  25.788  0.00  0.00    +0.000 A 
ATOM     13  C   UNL     1      56.300 -25.716  24.972  0.00  0.00    +0.000 A 
ATOM     14  C   UNL     1      56.923 -26.971  24.773  0.00  0.00    +0.000 A 
ATOM     15  C   UNL     1      56.729 -28.032  25.535  0.00  0.00    +0.000 A 
ATOM     16  C   UNL     1      55.647 -27.993  26.369  0.00  0.00    +0.000 A 
ATOM     17  C   UNL     1      54.910 -26.842  26.518  0.00  0.00    +0.000 A 
BRANCH  12  19
ATOM     18  C   UNL     1      54.586 -23.498  26.525  0.00  0.00    +0.000 C 
ATOM     19  O   UNL     1      54.287 -24.665  25.774  0.00  0.00    +0.000 OA
ENDBRANCH  12  19
BRANCH  17  20
ATOM     20  O   UNL     1      53.850 -26.803  27.461  0.00  0.00    +0.000 OA
ATOM     21  C   UNL     1      54.077 -27.211  28.802  0.00  0.00    +0.000 C 
ENDBRANCH  17  20
ENDBRANCH   1  15
TORSDOF 3
ENDMDL
MODEL 4
REMARK VINA RESULT:    -5.130      2.652      3.595
REMARK INTER + INTRA:          10.511
REMARK INTER:                  -5.941
REMARK INTRA:                  16.452
REMARK UNBOUND:                16.540
REMARK  Name = 
REMARK  5 active torsions:
REMARK  status: ('A' for Active; 'I' for Inactive)
REMARK    1  A    between atoms: C_1  and  O_2
REMARK    2  A    between atoms: O_2  and  C_3
REMARK    3  A    between atoms: C_6  and  C_7
REMARK    4  A    between atoms: C_19  and  O_20
REMARK    5  A    between atoms: O_20  and  C_21
REMARK                            x       y       z     vdW  Elec       q    Type
REMARK                         _______ _______ _______ _____ _____    ______ ____
ROOT
ATOM      1  C   UNL     1      56.267 -26.792  28.070  0.00  0.00    +0.000 A 
ATOM      2  C   UNL     1      57.280 -27.375  28.913  0.00  0.00    +0.000 A 
ATOM      3  C   UNL     1      58.025 -28.518  28.458  0.00  0.00    +0.000 A 
ATOM      4  O   UNL     1      58.918 -29.033  29.202  0.00  0.00    +0.000 OA
ATOM      5  C   UNL     1      57.745 -29.112  27.086  0.00  0.00    +0.000 A 
ATOM      6  C   UNL     1      57.607 -30.490  27.040  0.00  0.00    +0.000 A 
ATOM      7  C   UNL     1      57.597 -31.022  25.730  0.00  0.00    +0.000 A 
ATOM      8  C   UNL     1      57.371 -30.315  24.636  0.00  0.00    +0.000 A 
ATOM      9  C   UNL     1      57.454 -28.956  24.762  0.00  0.00    +0.000 A 
ATOM     10  C   UNL     1      57.596 -28.368  25.996  0.00  0.00    +0.000 A 
ATOM     11  O   UNL     1      55.570 -25.723  28.495  0.00  0.00    +0.000 OA
ENDROOT
BRANCH   1  15
ATOM     12  C   UNL     1      55.296 -28.311  24.198  0.00  0.00    +0.000 A 
ATOM     13  C   UNL     1      56.075 -27.170  24.288  0.00  0.00    +0.000 A 
ATOM     14  C   UNL     1      56.518 -26.880  25.600  0.00  0.00    +0.000 A 
ATOM     15  C   UNL     1      55.987 -27.386  26.699  0.00  0.00    +0.000 A 
ATOM     16  C   UNL     1      55.171 -28.470  26.536  0.00  0.00    +0.000 A 
ATOM     17  C   UNL     1      54.799 -28.893  25.282  0.00  0.00    +0.000 A 
BRANCH  12  19
ATOM     18  C   UNL     1      54.098 -28.367  22.050  0.00  0.00    +0.000 C 
ATOM     19  O   UNL     1      55.094 -28.890  22.917  0.00  0.00    +0.000 OA
ENDBRANCH  12  19
BRANCH  17  20
ATOM     20  O   UNL     1      53.876 -29.963  25.147  0.00  0.00    +0.000 OA
ATOM     21  C   UNL     1      53.873 -31.022  26.093  0.00  0.00    +0.000 C 
ENDBRANCH  17  20
ENDBRANCH   1  15
TORSDOF 3
ENDMDL
MODEL 5
REMARK VINA RESULT:    -5.038      2.031      5.198
REMARK INTER + INTRA:          10.619
REMARK INTER:                  -5.921
REMARK INTRA:                  16.540
REMARK UNBOUND:                16.540
REMARK  Name = 
REMARK  5 active torsions:
REMARK  status: ('A' for Active; 'I' for Inactive)
REMARK    1  A    between atoms: C_1  and  O_2
REMARK    2  A    between atoms: O_2  and  C_3
REMARK    3  A    between atoms: C_6  and  C_7
REMARK    4  A    between atoms: C_19  and  O_20
REMARK    5  A    between atoms: O_20  and  C_21
REMARK                            x       y       z     vdW  Elec       q    Type
REMARK                         _______ _______ _______ _____ _____    ______ ____
ROOT
ATOM      1  C   UNL     1      53.806 -30.465  23.428  0.00  0.00    +0.000 A 
ATOM      2  C   UNL     1      53.126 -29.558  22.538  0.00  0.00    +0.000 A 
ATOM      3  C   UNL     1      53.510 -28.172  22.490  0.00  0.00    +0.000 A 
ATOM      4  O   UNL     1      52.910 -27.372  21.705  0.00  0.00    +0.000 OA
ATOM      5  C   UNL     1      54.634 -27.663  23.379  0.00  0.00    +0.000 A 
ATOM      6  C   UNL     1      54.376 -26.490  24.068  0.00  0.00    +0.000 A 
ATOM      7  C   UNL     1      55.518 -25.921  24.681  0.00  0.00    +0.000 A 
ATOM      8  C   UNL     1      56.644 -26.570  24.913  0.00  0.00    +0.000 A 
ATOM      9  C   UNL     1      56.810 -27.757  24.255  0.00  0.00    +0.000 A 
ATOM     10  C   UNL     1      55.783 -28.312  23.529  0.00  0.00    +0.000 A 
ATOM     11  O   UNL     1      53.448 -31.760  23.473  0.00  0.00    +0.000 OA
ENDROOT
BRANCH   1  15
ATOM     12  C   UNL     1      56.971 -29.249  26.026  0.00  0.00    +0.000 A 
ATOM     13  C   UNL     1      57.291 -29.915  24.855  0.00  0.00    +0.000 A 
ATOM     14  C   UNL     1      56.199 -30.076  23.970  0.00  0.00    +0.000 A 
ATOM     15  C   UNL     1      54.930 -29.955  24.316  0.00  0.00    +0.000 A 
ATOM     16  C   UNL     1      54.682 -29.351  25.517  0.00  0.00    +0.000 A 
ATOM     17  C   UNL     1      55.708 -29.044  26.379  0.00  0.00    +0.000 A 
BRANCH  12  19
ATOM     18  C   UNL     1      58.557 -29.485  27.891  0.00  0.00    +0.000 C 
ATOM     19  O   UNL     1      58.029 -28.725  26.815  0.00  0.00    +0.000 OA
ENDBRANCH  12  19
BRANCH  17  20
ATOM     20  O   UNL     1      55.413 -28.503  27.658  0.00  0.00    +0.000 OA
ATOM     21  C   UNL     1      54.391 -27.526  27.797  0.00  0.00    +0.000 C 
ENDBRANCH  17  20
ENDBRANCH   1  15
TORSDOF 3
ENDMDL
