MODEL 1
REMARK VINA RESULT:    -5.638      0.000      0.000
REMARK INTER + INTRA:          -8.247
REMARK INTER:                  -7.499
REMARK INTRA:                  -0.748
REMARK UNBOUND:                -0.632
REMARK  Name = 
REMARK  9 active torsions:
REMARK  status: ('A' for Active; 'I' for Inactive)
REMARK    1  A    between atoms: C_1  and  O_2
REMARK    2  A    between atoms: O_2  and  C_3
REMARK    3  A    between atoms: C_6  and  C_7
REMARK    4  A    between atoms: C_7  and  C_9
REMARK    5  A    between atoms: C_10  and  C_11
REMARK    6  A    between atoms: C_17  and  O_18
REMARK    7  A    between atoms: O_18  and  C_19
REMARK    8  A    between atoms: C_20  and  O_21
REMARK    9  A    between atoms: O_21  and  C_22
REMARK                            x       y       z     vdW  Elec       q    Type
REMARK                         _______ _______ _______ _____ _____    ______ ____
ROOT
ATOM      1  C   UNL     1      57.639 -29.126  25.629  0.00  0.00    +0.000 A 
ATOM      2  C   UNL     1      57.715 -27.946  24.903  0.00  0.00    +0.000 A 
ATOM      3  C   UNL     1      56.613 -27.732  24.042  0.00  0.00    +0.000 A 
ATOM      4  C   UNL     1      55.770 -28.672  23.655  0.00  0.00    +0.000 A 
ATOM      5  C   UNL     1      55.791 -29.839  24.369  0.00  0.00    +0.000 A 
ATOM      6  C   UNL     1      56.757 -30.069  25.319  0.00  0.00    +0.000 A 
ENDROOT
BRANCH   1   8
ATOM      7  C   UNL     1      58.460 -28.901  27.935  0.00  0.00    +0.000 C 
ATOM      8  O   UNL     1      58.565 -29.483  26.644  0.00  0.00    +0.000 OA
ENDBRANCH   1   8
BRANCH   4   9
ATOM      9  C   UNL     1      54.827 -28.468  22.481  0.00  0.00    +0.000 C 
ATOM     10  O   UNL     1      54.971 -29.157  21.423  0.00  0.00    +0.000 OA
BRANCH   9  11
ATOM     11  C   UNL     1      53.711 -27.440  22.573  0.00  0.00    +0.000 C 
ATOM     12  C   UNL     1      53.059 -27.247  23.752  0.00  0.00    +0.000 C 
BRANCH  12  13
ATOM     13  C   UNL     1      51.943 -26.219  23.843  0.00  0.00    +0.000 A 
ATOM     14  C   UNL     1      50.986 -26.167  22.842  0.00  0.00    +0.000 A 
ATOM     15  C   UNL     1      50.183 -25.003  22.877  0.00  0.00    +0.000 A 
ATOM     16  C   UNL     1      50.064 -24.206  23.924  0.00  0.00    +0.000 A 
ATOM     17  C   UNL     1      50.999 -24.354  24.909  0.00  0.00    +0.000 A 
ATOM     18  C   UNL     1      51.902 -25.389  24.878  0.00  0.00    +0.000 A 
ENDBRANCH  12  13
ENDBRANCH   9  11
ENDBRANCH   4   9
BRANCH   5  19
ATOM     19  O   UNL     1      54.802 -30.827  24.125  0.00  0.00    +0.000 OA
ATOM     20  C   UNL     1      53.602 -30.832  24.883  0.00  0.00    +0.000 C 
ENDBRANCH   5  19
BRANCH   6  21
ATOM     21  O   UNL     1      56.813 -31.326  25.976  0.00  0.00    +0.000 OA
ATOM     22  C   UNL     1      57.504 -32.411  25.376  0.00  0.00    +0.000 C 
ENDBRANCH   6  21
TORSDOF 6
ENDMDL
MODEL 2
REMARK VINA RESULT:    -5.339      1.517      2.500
REMARK INTER + INTRA:          -7.843
REMARK INTER:                  -7.149
REMARK INTRA:                  -0.695
REMARK UNBOUND:                -0.632
REMARK  Name = 
REMARK  9 active torsions:
REMARK  status: ('A' for Active; 'I' for Inactive)
REMARK    1  A    between atoms: C_1  and  O_2
REMARK    2  A    between atoms: O_2  and  C_3
REMARK    3  A    between atoms: C_6  and  C_7
REMARK    4  A    between atoms: C_7  and  C_9
REMARK    5  A    between atoms: C_10  and  C_11
REMARK    6  A    between atoms: C_17  and  O_18
REMARK    7  A    between atoms: O_18  and  C_19
REMARK    8  A    between atoms: C_20  and  O_21
REMARK    9  A    between atoms: O_21  and  C_22
REMARK                            x       y       z     vdW  Elec       q    Type
REMARK                         _______ _______ _______ _____ _____    ______ ____
ROOT
ATOM      1  C   UNL     1      55.634 -30.049  26.811  0.00  0.00    +0.000 A 
ATOM      2  C   UNL     1      54.452 -30.492  26.238  0.00  0.00    +0.000 A 
ATOM      3  C   UNL     1      54.260 -30.051  24.908  0.00  0.00    +0.000 A 
ATOM      4  C   UNL     1      54.905 -29.041  24.353  0.00  0.00    +0.000 A 
ATOM      5  C   UNL     1      56.027 -28.605  25.003  0.00  0.00    +0.000 A 
ATOM      6  C   UNL     1      56.353 -29.085  26.249  0.00  0.00    +0.000 A 
ENDROOT
BRANCH   1   8
ATOM      7  C   UNL     1      56.358 -31.845  28.326  0.00  0.00    +0.000 C 
ATOM      8  O   UNL     1      56.094 -30.471  28.086  0.00  0.00    +0.000 OA
ENDBRANCH   1   8
BRANCH   4   9
ATOM      9  C   UNL     1      54.428 -28.399  23.060  0.00  0.00    +0.000 C 
ATOM     10  O   UNL     1      54.944 -28.745  21.951  0.00  0.00    +0.000 OA
BRANCH   9  11
ATOM     11  C   UNL     1      53.335 -27.344  23.094  0.00  0.00    +0.000 C 
ATOM     12  C   UNL     1      52.980 -26.770  24.276  0.00  0.00    +0.000 C 
BRANCH  12  13
ATOM     13  C   UNL     1      51.886 -25.715  24.310  0.00  0.00    +0.000 A 
ATOM     14  C   UNL     1      50.942 -25.686  23.297  0.00  0.00    +0.000 A 
ATOM     15  C   UNL     1      50.164 -24.503  23.273  0.00  0.00    +0.000 A 
ATOM     16  C   UNL     1      50.052 -23.659  24.283  0.00  0.00    +0.000 A 
ATOM     17  C   UNL     1      50.974 -23.784  25.284  0.00  0.00    +0.000 A 
ATOM     18  C   UNL     1      51.854 -24.840  25.308  0.00  0.00    +0.000 A 
ENDBRANCH  12  13
ENDBRANCH   9  11
ENDBRANCH   4   9
BRANCH   5  19
ATOM     19  O   UNL     1      56.866 -27.643  24.382  0.00  0.00    +0.000 OA
ATOM     20  C   UNL     1      56.672 -26.260  24.640  0.00  0.00    +0.000 C 
ENDBRANCH   5  19
BRANCH   6  21
ATOM     21  O   UNL     1      57.468 -28.544  26.941  0.00  0.00    +0.000 OA
ATOM     22  C   UNL     1      58.753 -29.126  26.779  0.00  0.00    +0.000 C 
ENDBRANCH   6  21
TORSDOF 6
ENDMDL
MODEL 3
REMARK VINA RESULT:    -5.258      2.044      3.729
REMARK INTER + INTRA:          -7.735
REMARK INTER:                  -7.102
REMARK INTRA:                  -0.632
REMARK UNBOUND:                -0.632
REMARK  Name = 
REMARK  9 active torsions:
REMARK  status: ('A' for Active; 'I' for Inactive)
REMARK    1  A    between atoms: C_1  and  O_2
REMARK    2  A    between atoms: O_2  and  C_3
REMARK    3  A    between atoms: C_6  and  C_7
REMARK    4  A    between atoms: C_7  and  C_9
REMARK    5  A    between atoms: C_10  and  C_11
REMARK    6  A    between atoms: C_17  and  O_18
REMARK    7  A    between atoms: O_18  and  C_19
REMARK    8  A    between atoms: C_20  and  O_21
REMARK    9  A    between atoms: O_21  and  C_22
REMARK                            x       y       z     vdW  Elec       q    Type
REMARK                         _______ _______ _______ _____ _____    ______ ____
ROOT
ATOM      1  C   UNL     1      57.264 -32.646  26.356  0.00  0.00    +0.000 A 
ATOM      2  C   UNL     1      57.527 -32.547  24.998  0.00  0.00    +0.000 A 
ATOM      3  C   UNL     1      57.741 -31.223  24.551  0.00  0.00    +0.000 A 
ATOM      4  C   UNL     1      57.384 -30.139  25.217  0.00  0.00    +0.000 A 
ATOM      5  C   UNL     1      57.072 -30.313  26.537  0.00  0.00    +0.000 A 
ATOM      6  C   UNL     1      56.972 -31.572  27.080  0.00  0.00    +0.000 A 
ENDROOT
BRANCH   1   8
ATOM      7  C   UNL     1      58.017 -34.957  26.727  0.00  0.00    +0.000 C 
ATOM      8  O   UNL     1      57.146 -33.881  27.045  0.00  0.00    +0.000 OA
ENDBRANCH   1   8
BRANCH   4   9
ATOM      9  C   UNL     1      57.326 -28.773  24.553  0.00  0.00    +0.000 C 
ATOM     10  O   UNL     1      58.334 -28.001  24.599  0.00  0.00    +0.000 OA
BRANCH   9  11
ATOM     11  C   UNL     1      56.061 -28.331  23.836  0.00  0.00    +0.000 C 
ATOM     12  C   UNL     1      55.123 -27.600  24.499  0.00  0.00    +0.000 C 
BRANCH  12  13
ATOM     13  C   UNL     1      53.858 -27.159  23.781  0.00  0.00    +0.000 A 
ATOM     14  C   UNL     1      52.914 -26.414  24.469  0.00  0.00    +0.000 A 
ATOM     15  C   UNL     1      51.668 -26.313  23.804  0.00  0.00    +0.000 A 
ATOM     16  C   UNL     1      51.481 -26.564  22.521  0.00  0.00    +0.000 A 
ATOM     17  C   UNL     1      52.481 -27.243  21.883  0.00  0.00    +0.000 A 
ATOM     18  C   UNL     1      53.678 -27.494  22.509  0.00  0.00    +0.000 A 
ENDBRANCH  12  13
ENDBRANCH   9  11
ENDBRANCH   4   9
BRANCH   5  19
ATOM     19  O   UNL     1      56.847 -29.177  27.359  0.00  0.00    +0.000 OA
ATOM     20  C   UNL     1      57.934 -28.563  28.034  0.00  0.00    +0.000 C 
ENDBRANCH   5  19
BRANCH   6  21
ATOM     21  O   UNL     1      56.552 -31.726  28.428  0.00  0.00    +0.000 OA
ATOM     22  C   UNL     1      57.517 -31.808  29.467  0.00  0.00    +0.000 C 
ENDBRANCH   6  21
TORSDOF 6
ENDMDL
MODEL 4
REMARK VINA RESULT:    -5.204      3.430      5.034
REMARK INTER + INTRA:          -7.661
REMARK INTER:                  -7.100
REMARK INTRA:                  -0.561
REMARK UNBOUND:                -0.632
REMARK  Name = 
REMARK  9 active torsions:
REMARK  status: ('A' for Active; 'I' for Inactive)
REMARK    1  A    between atoms: C_1  and  O_2
REMARK    2  A    between atoms: O_2  and  C_3
REMARK    3  A    between atoms: C_6  and  C_7
REMARK    4  A    between atoms: C_7  and  C_9
REMARK    5  A    between atoms: C_10  and  C_11
REMARK    6  A    between atoms: C_17  and  O_18
REMARK    7  A    between atoms: O_18  and  C_19
REMARK    8  A    between atoms: C_20  and  O_21
REMARK    9  A    between atoms: O_21  and  C_22
REMARK                            x       y       z     vdW  Elec       q    Type
REMARK                         _______ _______ _______ _____ _____    ______ ____
ROOT
ATOM      1  C   UNL     1      55.354 -24.726  27.138  0.00  0.00    +0.000 A 
ATOM      2  C   UNL     1      55.778 -24.350  25.873  0.00  0.00    +0.000 A 
ATOM      3  C   UNL     1      56.079 -25.440  25.023  0.00  0.00    +0.000 A 
ATOM      4  C   UNL     1      56.305 -26.674  25.438  0.00  0.00    +0.000 A 
ATOM      5  C   UNL     1      55.926 -26.963  26.719  0.00  0.00    +0.000 A 
ATOM      6  C   UNL     1      55.496 -25.973  27.570  0.00  0.00    +0.000 A 
ENDROOT
BRANCH   1   8
ATOM      7  C   UNL     1      55.731 -22.786  28.601  0.00  0.00    +0.000 C 
ATOM      8  O   UNL     1      54.876 -23.807  28.110  0.00  0.00    +0.000 OA
ENDBRANCH   1   8
BRANCH   4   9
ATOM      9  C   UNL     1      56.951 -27.716  24.538  0.00  0.00    +0.000 C 
ATOM     10  O   UNL     1      58.193 -27.964  24.644  0.00  0.00    +0.000 OA
BRANCH   9  11
ATOM     11  C   UNL     1      56.111 -28.459  23.513  0.00  0.00    +0.000 C 
ATOM     12  C   UNL     1      54.947 -27.916  23.063  0.00  0.00    +0.000 C 
BRANCH  12  13
ATOM     13  C   UNL     1      54.107 -28.660  22.038  0.00  0.00    +0.000 A 
ATOM     14  C   UNL     1      54.677 -29.700  21.322  0.00  0.00    +0.000 A 
ATOM     15  C   UNL     1      53.908 -30.118  20.210  0.00  0.00    +0.000 A 
ATOM     16  C   UNL     1      52.628 -29.842  20.037  0.00  0.00    +0.000 A 
ATOM     17  C   UNL     1      52.109 -28.852  20.823  0.00  0.00    +0.000 A 
ATOM     18  C   UNL     1      52.843 -28.302  21.846  0.00  0.00    +0.000 A 
ENDBRANCH  12  13
ENDBRANCH   9  11
ENDBRANCH   4   9
BRANCH   5  19
ATOM     19  O   UNL     1      55.978 -28.306  27.178  0.00  0.00    +0.000 OA
ATOM     20  C   UNL     1      54.861 -29.162  26.995  0.00  0.00    +0.000 C 
ENDBRANCH   5  19
BRANCH   6  21
ATOM     21  O   UNL     1      55.200 -26.287  28.922  0.00  0.00    +0.000 OA
ATOM     22  C   UNL     1      53.865 -26.577  29.308  0.00  0.00    +0.000 C 
ENDBRANCH   6  21
TORSDOF 6
ENDMDL
MODEL 5
REMARK VINA RESULT:    -5.157      2.341      3.311
REMARK INTER + INTRA:          -7.598
REMARK INTER:                  -6.947
REMARK INTRA:                  -0.652
REMARK UNBOUND:                -0.632
REMARK  Name = 
REMARK  9 active torsions:
REMARK  status: ('A' for Active; 'I' for Inactive)
REMARK    1  A    between atoms: C_1  and  O_2
REMARK    2  A    between atoms: O_2  and  C_3
REMARK    3  A    between atoms: C_6  and  C_7
REMARK    4  A    between atoms: C_7  and  C_9
REMARK    5  A    between atoms: C_10  and  C_11
REMARK    6  A    between atoms: C_17  and  O_18
REMARK    7  A    between atoms: O_18  and  C_19
REMARK    8  A    between atoms: C_20  and  O_21
REMARK    9  A    between atoms: O_21  and  C_22
REMARK                            x       y       z     vdW  Elec       q    Type
REMARK                         _______ _______ _______ _____ _____    ______ ____
ROOT
ATOM      1  C   UNL     1      57.022 -29.307  25.661  0.00  0.00    +0.000 A 
ATOM      2  C   UNL     1      57.060 -28.357  24.652  0.00  0.00    +0.000 A 
ATOM      3  C   UNL     1      56.750 -27.047  25.087  0.00  0.00    +0.000 A 
ATOM      4  C   UNL     1      56.133 -26.760  26.220  0.00  0.00    +0.000 A 
ATOM      5  C   UNL     1      56.070 -27.761  27.149  0.00  0.00    +0.000 A 
ATOM      6  C   UNL     1      56.475 -29.038  26.841  0.00  0.00    +0.000 A 
ENDROOT
BRANCH   1   8
ATOM      7  C   UNL     1      56.890 -31.418  24.408  0.00  0.00    +0.000 C 
ATOM      8  O   UNL     1      57.422 -30.658  25.482  0.00  0.00    +0.000 OA
ENDBRANCH   1   8
BRANCH   4   9
ATOM      9  C   UNL     1      55.528 -25.389  26.476  0.00  0.00    +0.000 C 
ATOM     10  O   UNL     1      56.066 -24.604  27.319  0.00  0.00    +0.000 OA
BRANCH   9  11
ATOM     11  C   UNL     1      54.278 -24.958  25.725  0.00  0.00    +0.000 C 
ATOM     12  C   UNL     1      53.209 -25.797  25.645  0.00  0.00    +0.000 C 
BRANCH  12  13
ATOM     13  C   UNL     1      51.960 -25.365  24.894  0.00  0.00    +0.000 A 
ATOM     14  C   UNL     1      51.521 -26.121  23.819  0.00  0.00    +0.000 A 
ATOM     15  C   UNL     1      50.541 -25.477  23.027  0.00  0.00    +0.000 A 
ATOM     16  C   UNL     1      49.826 -24.438  23.420  0.00  0.00    +0.000 A 
ATOM     17  C   UNL     1      50.274 -23.775  24.527  0.00  0.00    +0.000 A 
ATOM     18  C   UNL     1      51.311 -24.273  25.279  0.00  0.00    +0.000 A 
ENDBRANCH  12  13
ENDBRANCH   9  11
ENDBRANCH   4   9
BRANCH   5  19
ATOM     19  O   UNL     1      55.577 -27.479  28.450  0.00  0.00    +0.000 OA
ATOM     20  C   UNL     1      54.204 -27.683  28.749  0.00  0.00    +0.000 C 
ENDBRANCH   5  19
BRANCH   6  21
ATOM     21  O   UNL     1      56.309 -30.078  27.793  0.00  0.00    +0.000 OA
ATOM     22  C   UNL     1      57.357 -30.385  28.699  0.00  0.00    +0.000 C 
ENDBRANCH   6  21
TORSDOF 6
ENDMDL
