MODEL 1
REMARK VINA RESULT:    -5.808      0.000      0.000
REMARK INTER + INTRA:          -8.237
REMARK INTER:                  -7.408
REMARK INTRA:                  -0.829
REMARK UNBOUND:                -0.731
REMARK  Name = 
REMARK  7 active torsions:
REMARK  status: ('A' for Active; 'I' for Inactive)
REMARK    1  A    between atoms: C_1  and  O_2
REMARK    2  A    between atoms: O_2  and  C_3
REMARK    3  A    between atoms: C_6  and  C_7
REMARK    4  A    between atoms: C_8  and  C_9
REMARK    5  A    between atoms: C_9  and  C_11
REMARK    6  A    between atoms: C_14  and  O_15
REMARK    7  A    between atoms: C_17  and  O_18
REMARK                            x       y       z     vdW  Elec       q    Type
REMARK                         _______ _______ _______ _____ _____    ______ ____
ROOT
ATOM      1  C   UNL     1      56.181 -27.010  24.882  0.00  0.00    +0.000 C 
ATOM      2  O   UNL     1      56.524 -25.797  25.039  0.00  0.00    +0.000 OA
ENDROOT
BRANCH   1   3
ATOM      3  C   UNL     1      56.753 -28.086  25.792  0.00  0.00    +0.000 A 
ATOM      4  C   UNL     1      55.916 -28.731  26.687  0.00  0.00    +0.000 A 
ATOM      5  C   UNL     1      56.599 -29.483  27.672  0.00  0.00    +0.000 A 
ATOM      6  C   UNL     1      57.861 -29.860  27.583  0.00  0.00    +0.000 A 
ATOM      7  C   UNL     1      58.620 -29.234  26.633  0.00  0.00    +0.000 A 
ATOM      8  C   UNL     1      58.045 -28.385  25.719  0.00  0.00    +0.000 A 
BRANCH   6   9
ATOM      9  O   UNL     1      58.402 -30.866  28.428  0.00  0.00    +0.000 OA
ATOM     10  H   UNL     1      58.190 -30.865  29.405  0.00  0.00    +0.000 HD
ENDBRANCH   6   9
BRANCH   8  11
ATOM     11  O   UNL     1      58.839 -27.822  24.684  0.00  0.00    +0.000 OA
ATOM     12  H   UNL     1      58.797 -28.200  23.760  0.00  0.00    +0.000 HD
ENDBRANCH   8  11
ENDBRANCH   1   3
BRANCH   1  14
ATOM     13  C   UNL     1      55.445 -28.465  22.992  0.00  0.00    +0.000 C 
ATOM     14  C   UNL     1      55.199 -27.388  23.785  0.00  0.00    +0.000 C 
BRANCH  13  18
ATOM     15  C   UNL     1      52.602 -29.697  20.052  0.00  0.00    +0.000 A 
ATOM     16  C   UNL     1      52.197 -28.815  21.041  0.00  0.00    +0.000 A 
ATOM     17  C   UNL     1      53.259 -28.305  21.824  0.00  0.00    +0.000 A 
ATOM     18  C   UNL     1      54.463 -28.843  21.896  0.00  0.00    +0.000 A 
ATOM     19  C   UNL     1      54.779 -29.757  20.929  0.00  0.00    +0.000 A 
ATOM     20  C   UNL     1      53.827 -30.206  20.045  0.00  0.00    +0.000 A 
BRANCH  15  22
ATOM     21  C   UNL     1      52.237 -30.242  17.682  0.00  0.00    +0.000 C 
ATOM     22  O   UNL     1      51.720 -30.006  18.983  0.00  0.00    +0.000 OA
ENDBRANCH  15  22
ENDBRANCH  13  18
ENDBRANCH   1  14
TORSDOF 6
ENDMDL
MODEL 2
REMARK VINA RESULT:    -5.676      3.945      5.237
REMARK INTER + INTRA:          -8.066
REMARK INTER:                  -7.314
REMARK INTRA:                  -0.753
REMARK UNBOUND:                -0.731
REMARK  Name = 
REMARK  7 active torsions:
REMARK  status: ('A' for Active; 'I' for Inactive)
REMARK    1  A    between atoms: C_1  and  O_2
REMARK    2  A    between atoms: O_2  and  C_3
REMARK    3  A    between atoms: C_6  and  C_7
REMARK    4  A    between atoms: C_8  and  C_9
REMARK    5  A    between atoms: C_9  and  C_11
REMARK    6  A    between atoms: C_14  and  O_15
REMARK    7  A    between atoms: C_17  and  O_18
REMARK                            x       y       z     vdW  Elec       q    Type
REMARK                         _______ _______ _______ _____ _____    ______ ____
ROOT
ATOM      1  C   UNL     1      55.017 -28.351  22.771  0.00  0.00    +0.000 C 
ATOM      2  O   UNL     1      54.957 -29.060  21.718  0.00  0.00    +0.000 OA
ENDROOT
BRANCH   1   3
ATOM      3  C   UNL     1      56.078 -28.640  23.822  0.00  0.00    +0.000 A 
ATOM      4  C   UNL     1      56.854 -27.599  24.304  0.00  0.00    +0.000 A 
ATOM      5  C   UNL     1      57.988 -28.021  25.039  0.00  0.00    +0.000 A 
ATOM      6  C   UNL     1      58.142 -29.230  25.548  0.00  0.00    +0.000 A 
ATOM      7  C   UNL     1      57.299 -30.200  25.080  0.00  0.00    +0.000 A 
ATOM      8  C   UNL     1      56.248 -29.884  24.254  0.00  0.00    +0.000 A 
BRANCH   6   9
ATOM      9  O   UNL     1      59.128 -29.507  26.531  0.00  0.00    +0.000 OA
ATOM     10  H   UNL     1      60.085 -29.271  26.360  0.00  0.00    +0.000 HD
ENDBRANCH   6   9
BRANCH   8  11
ATOM     11  O   UNL     1      55.333 -30.895  23.860  0.00  0.00    +0.000 OA
ATOM     12  H   UNL     1      54.398 -30.653  23.604  0.00  0.00    +0.000 HD
ENDBRANCH   8  11
ENDBRANCH   1   3
BRANCH   1  14
ATOM     13  C   UNL     1      52.996 -27.363  23.851  0.00  0.00    +0.000 C 
ATOM     14  C   UNL     1      54.031 -27.214  22.981  0.00  0.00    +0.000 C 
BRANCH  13  18
ATOM     15  C   UNL     1      50.369 -24.027  24.315  0.00  0.00    +0.000 A 
ATOM     16  C   UNL     1      50.274 -24.794  23.164  0.00  0.00    +0.000 A 
ATOM     17  C   UNL     1      51.028 -25.990  23.210  0.00  0.00    +0.000 A 
ATOM     18  C   UNL     1      52.010 -26.226  24.061  0.00  0.00    +0.000 A 
ATOM     19  C   UNL     1      52.091 -25.392  25.141  0.00  0.00    +0.000 A 
ATOM     20  C   UNL     1      51.296 -24.274  25.232  0.00  0.00    +0.000 A 
BRANCH  15  22
ATOM     21  C   UNL     1      48.645 -23.022  25.752  0.00  0.00    +0.000 C 
ATOM     22  O   UNL     1      49.413 -23.006  24.558  0.00  0.00    +0.000 OA
ENDBRANCH  15  22
ENDBRANCH  13  18
ENDBRANCH   1  14
TORSDOF 6
ENDMDL
MODEL 3
REMARK VINA RESULT:    -5.439      1.925      3.322
REMARK INTER + INTRA:          -7.760
REMARK INTER:                  -6.921
REMARK INTRA:                  -0.839
REMARK UNBOUND:                -0.731
REMARK  Name = 
REMARK  7 active torsions:
REMARK  status: ('A' for Active; 'I' for Inactive)
REMARK    1  A    between atoms: C_1  and  O_2
REMARK    2  A    between atoms: O_2  and  C_3
REMARK    3  A    between atoms: C_6  and  C_7
REMARK    4  A    between atoms: C_8  and  C_9
REMARK    5  A    between atoms: C_9  and  C_11
REMARK    6  A    between atoms: C_14  and  O_15
REMARK    7  A    between atoms: C_17  and  O_18
REMARK                            x       y       z     vdW  Elec       q    Type
REMARK                         _______ _______ _______ _____ _____    ______ ____
ROOT
ATOM      1  C   UNL     1      56.664 -27.997  24.517  0.00  0.00    +0.000 C 
ATOM      2  O   UNL     1      57.882 -28.321  24.684  0.00  0.00    +0.000 OA
ENDROOT
BRANCH   1   3
ATOM      3  C   UNL     1      56.064 -26.856  25.324  0.00  0.00    +0.000 A 
ATOM      4  C   UNL     1      55.220 -27.147  26.383  0.00  0.00    +0.000 A 
ATOM      5  C   UNL     1      54.495 -26.030  26.863  0.00  0.00    +0.000 A 
ATOM      6  C   UNL     1      54.812 -24.772  26.618  0.00  0.00    +0.000 A 
ATOM      7  C   UNL     1      55.704 -24.554  25.604  0.00  0.00    +0.000 A 
ATOM      8  C   UNL     1      56.353 -25.602  24.998  0.00  0.00    +0.000 A 
BRANCH   6   9
ATOM      9  O   UNL     1      54.258 -23.702  27.368  0.00  0.00    +0.000 OA
ATOM     10  H   UNL     1      54.568 -22.765  27.208  0.00  0.00    +0.000 HD
ENDBRANCH   6   9
BRANCH   8  11
ATOM     11  O   UNL     1      57.344 -25.342  24.014  0.00  0.00    +0.000 OA
ATOM     12  H   UNL     1      57.578 -24.400  23.777  0.00  0.00    +0.000 HD
ENDBRANCH   8  11
ENDBRANCH   1   3
BRANCH   1  14
ATOM     13  C   UNL     1      54.853 -28.088  22.803  0.00  0.00    +0.000 C 
ATOM     14  C   UNL     1      55.807 -28.749  23.512  0.00  0.00    +0.000 C 
BRANCH  13  18
ATOM     15  C   UNL     1      52.497 -30.031  19.817  0.00  0.00    +0.000 A 
ATOM     16  C   UNL     1      53.860 -30.275  19.851  0.00  0.00    +0.000 A 
ATOM     17  C   UNL     1      54.505 -29.762  21.001  0.00  0.00    +0.000 A 
ATOM     18  C   UNL     1      53.996 -28.839  21.797  0.00  0.00    +0.000 A 
ATOM     19  C   UNL     1      52.657 -28.597  21.668  0.00  0.00    +0.000 A 
ATOM     20  C   UNL     1      51.932 -29.164  20.648  0.00  0.00    +0.000 A 
BRANCH  15  22
ATOM     21  C   UNL     1      50.264 -30.606  18.962  0.00  0.00    +0.000 C 
ATOM     22  O   UNL     1      51.673 -30.775  18.931  0.00  0.00    +0.000 OA
ENDBRANCH  15  22
ENDBRANCH  13  18
ENDBRANCH   1  14
TORSDOF 6
ENDMDL
MODEL 4
REMARK VINA RESULT:    -5.421      4.067      5.038
REMARK INTER + INTRA:          -7.737
REMARK INTER:                  -7.212
REMARK INTRA:                  -0.525
REMARK UNBOUND:                -0.731
REMARK  Name = 
REMARK  7 active torsions:
REMARK  status: ('A' for Active; 'I' for Inactive)
REMARK    1  A    between atoms: C_1  and  O_2
REMARK    2  A    between atoms: O_2  and  C_3
REMARK    3  A    between atoms: C_6  and  C_7
REMARK    4  A    between atoms: C_8  and  C_9
REMARK    5  A    between atoms: C_9  and  C_11
REMARK    6  A    between atoms: C_14  and  O_15
REMARK    7  A    between atoms: C_17  and  O_18
REMARK                            x       y       z     vdW  Elec       q    Type
REMARK                         _______ _______ _______ _____ _____    ______ ____
ROOT
ATOM      1  C   UNL     1      55.403 -25.885  26.151  0.00  0.00    +0.000 C 
ATOM      2  O   UNL     1      55.865 -25.252  27.152  0.00  0.00    +0.000 OA
ENDROOT
BRANCH   1   3
ATOM      3  C   UNL     1      56.052 -27.188  25.711  0.00  0.00    +0.000 A 
ATOM      4  C   UNL     1      55.582 -28.386  26.224  0.00  0.00    +0.000 A 
ATOM      5  C   UNL     1      56.436 -29.488  25.984  0.00  0.00    +0.000 A 
ATOM      6  C   UNL     1      57.394 -29.508  25.075  0.00  0.00    +0.000 A 
ATOM      7  C   UNL     1      57.768 -28.299  24.556  0.00  0.00    +0.000 A 
ATOM      8  C   UNL     1      57.061 -27.157  24.848  0.00  0.00    +0.000 A 
BRANCH   6   9
ATOM      9  O   UNL     1      58.004 -30.721  24.658  0.00  0.00    +0.000 OA
ATOM     10  H   UNL     1      58.838 -31.041  25.105  0.00  0.00    +0.000 HD
ENDBRANCH   6   9
BRANCH   8  11
ATOM     11  O   UNL     1      57.413 -25.933  24.221  0.00  0.00    +0.000 OA
ATOM     12  H   UNL     1      58.199 -25.893  23.606  0.00  0.00    +0.000 HD
ENDBRANCH   8  11
ENDBRANCH   1   3
BRANCH   1  14
ATOM     13  C   UNL     1      52.947 -25.548  25.871  0.00  0.00    +0.000 C 
ATOM     14  C   UNL     1      54.203 -25.341  25.393  0.00  0.00    +0.000 C 
BRANCH  13  18
ATOM     15  C   UNL     1      49.725 -23.903  23.599  0.00  0.00    +0.000 A 
ATOM     16  C   UNL     1      50.336 -25.062  23.146  0.00  0.00    +0.000 A 
ATOM     17  C   UNL     1      51.233 -25.638  24.075  0.00  0.00    +0.000 A 
ATOM     18  C   UNL     1      51.747 -25.004  25.114  0.00  0.00    +0.000 A 
ATOM     19  C   UNL     1      51.141 -23.831  25.470  0.00  0.00    +0.000 A 
ATOM     20  C   UNL     1      50.164 -23.272  24.681  0.00  0.00    +0.000 A 
BRANCH  15  22
ATOM     21  C   UNL     1      48.643 -22.956  21.604  0.00  0.00    +0.000 C 
ATOM     22  O   UNL     1      48.562 -23.420  22.943  0.00  0.00    +0.000 OA
ENDBRANCH  15  22
ENDBRANCH  13  18
ENDBRANCH   1  14
TORSDOF 6
ENDMDL
MODEL 5
REMARK VINA RESULT:    -5.302      3.641      5.136
REMARK INTER + INTRA:          -7.583
REMARK INTER:                  -6.852
REMARK INTRA:                  -0.731
REMARK UNBOUND:                -0.731
REMARK  Name = 
REMARK  7 active torsions:
REMARK  status: ('A' for Active; 'I' for Inactive)
REMARK    1  A    between atoms: C_1  and  O_2
REMARK    2  A    between atoms: O_2  and  C_3
REMARK    3  A    between atoms: C_6  and  C_7
REMARK    4  A    between atoms: C_8  and  C_9
REMARK    5  A    between atoms: C_9  and  C_11
REMARK    6  A    between atoms: C_14  and  O_15
REMARK    7  A    between atoms: C_17  and  O_18
REMARK                            x       y       z     vdW  Elec       q    Type
REMARK                         _______ _______ _______ _____ _____    ______ ____
ROOT
ATOM      1  C   UNL     1      55.825 -27.961  24.326  0.00  0.00    +0.000 C 
ATOM      2  O   UNL     1      56.031 -28.300  23.119  0.00  0.00    +0.000 OA
ENDROOT
BRANCH   1   3
ATOM      3  C   UNL     1      56.554 -28.678  25.452  0.00  0.00    +0.000 A 
ATOM      4  C   UNL     1      55.840 -29.508  26.300  0.00  0.00    +0.000 A 
ATOM      5  C   UNL     1      56.545 -29.879  27.469  0.00  0.00    +0.000 A 
ATOM      6  C   UNL     1      57.854 -29.779  27.616  0.00  0.00    +0.000 A 
ATOM      7  C   UNL     1      58.512 -28.999  26.705  0.00  0.00    +0.000 A 
ATOM      8  C   UNL     1      57.859 -28.493  25.607  0.00  0.00    +0.000 A 
BRANCH   6   9
ATOM      9  O   UNL     1      58.542 -30.448  28.663  0.00  0.00    +0.000 OA
ATOM     10  H   UNL     1      58.033 -30.993  29.328  0.00  0.00    +0.000 HD
ENDBRANCH   6   9
BRANCH   8  11
ATOM     11  O   UNL     1      58.587 -27.767  24.628  0.00  0.00    +0.000 OA
ATOM     12  H   UNL     1      59.032 -26.906  24.872  0.00  0.00    +0.000 HD
ENDBRANCH   8  11
ENDBRANCH   1   3
BRANCH   1  14
ATOM     13  C   UNL     1      53.512 -27.039  24.504  0.00  0.00    +0.000 C 
ATOM     14  C   UNL     1      54.850 -26.839  24.647  0.00  0.00    +0.000 C 
BRANCH  13  18
ATOM     15  C   UNL     1      50.887 -23.752  25.243  0.00  0.00    +0.000 A 
ATOM     16  C   UNL     1      50.607 -24.602  24.185  0.00  0.00    +0.000 A 
ATOM     17  C   UNL     1      51.404 -25.770  24.163  0.00  0.00    +0.000 A 
ATOM     18  C   UNL     1      52.538 -25.917  24.824  0.00  0.00    +0.000 A 
ATOM     19  C   UNL     1      52.788 -25.006  25.812  0.00  0.00    +0.000 A 
ATOM     20  C   UNL     1      51.980 -23.907  25.980  0.00  0.00    +0.000 A 
BRANCH  15  22
ATOM     21  C   UNL     1      49.098 -22.928  26.715  0.00  0.00    +0.000 C 
ATOM     22  O   UNL     1      49.954 -22.742  25.598  0.00  0.00    +0.000 OA
ENDBRANCH  15  22
ENDBRANCH  13  18
ENDBRANCH   1  14
TORSDOF 6
ENDMDL
