MODEL 1
REMARK VINA RESULT:    -6.001      0.000      0.000
REMARK INTER + INTRA:          -8.854
REMARK INTER:                  -7.532
REMARK INTRA:                  -1.322
REMARK UNBOUND:                -1.274
REMARK  Name = 
REMARK  6 active torsions:
REMARK  status: ('A' for Active; 'I' for Inactive)
REMARK    1  A    between atoms: C_1  and  C_2
REMARK    2  A    between atoms: C_5  and  C_6
REMARK    3  A    between atoms: C_8  and  C_9
REMARK    4  A    between atoms: N_14  and  C_15
REMARK    5  A    between atoms: C_18  and  S_19
REMARK    6  A    between atoms: S_19  and  N_20
REMARK                            x       y       z     vdW  Elec       q    Type
REMARK                         _______ _______ _______ _____ _____    ______ ____
ROOT
ATOM      1  C   UNL     1      52.781 -26.699  24.311  0.00  0.00    +0.000 A 
ATOM      2  C   UNL     1      51.712 -25.979  23.894  0.00  0.00    +0.000 A 
ATOM      3  C   UNL     1      51.542 -24.998  24.813  0.00  0.00    +0.000 A 
ATOM      4  N   UNL     1      52.476 -25.142  25.714  0.00  0.00    +0.000 NA
ATOM      5  N   UNL     1      53.214 -26.151  25.413  0.00  0.00    +0.000 N 
ENDROOT
BRANCH   1  10
ATOM      6  C   UNL     1      55.086 -31.376  21.746  0.00  0.00    +0.000 C 
ATOM      7  C   UNL     1      54.474 -30.159  22.377  0.00  0.00    +0.000 A 
ATOM      8  C   UNL     1      54.917 -28.867  22.074  0.00  0.00    +0.000 A 
ATOM      9  C   UNL     1      54.378 -27.763  22.671  0.00  0.00    +0.000 A 
ATOM     10  C   UNL     1      53.368 -27.920  23.622  0.00  0.00    +0.000 A 
ATOM     11  C   UNL     1      52.900 -29.180  23.939  0.00  0.00    +0.000 A 
ATOM     12  C   UNL     1      53.464 -30.283  23.321  0.00  0.00    +0.000 A 
ENDBRANCH   1  10
BRANCH   5  13
ATOM     13  C   UNL     1      54.370 -26.616  26.193  0.00  0.00    +0.000 A 
ATOM     14  C   UNL     1      55.641 -26.306  25.740  0.00  0.00    +0.000 A 
ATOM     15  C   UNL     1      56.655 -27.149  26.255  0.00  0.00    +0.000 A 
ATOM     16  C   UNL     1      56.520 -27.916  27.321  0.00  0.00    +0.000 A 
ATOM     17  C   UNL     1      55.244 -28.128  27.762  0.00  0.00    +0.000 A 
ATOM     18  C   UNL     1      54.186 -27.439  27.219  0.00  0.00    +0.000 A 
BRANCH  16  19
ATOM     19  S   UNL     1      57.950 -28.647  28.156  0.00  0.00    +0.000 S 
ATOM     20  O   UNL     1      57.468 -29.594  29.258  0.00  0.00    +0.000 OA
ATOM     21  O   UNL     1      58.789 -29.429  27.143  0.00  0.00    +0.000 OA
BRANCH  19  22
ATOM     22  N   UNL     1      58.929 -27.370  28.869  0.00  0.00    +0.000 NA
ATOM     23  H   UNL     1      59.076 -26.630  28.182  0.00  0.00    +0.000 HD
ATOM     24  H   UNL     1      58.448 -26.986  29.682  0.00  0.00    +0.000 HD
ENDBRANCH  19  22
ENDBRANCH  16  19
ENDBRANCH   5  13
BRANCH   3  25
ATOM     25  C   UNL     1      50.464 -23.926  24.797  0.00  0.00    +0.000 C 
ATOM     26  F   UNL     1      49.375 -24.384  25.407  0.00  0.00    +0.000 F 
ATOM     27  F   UNL     1      50.906 -22.844  25.431  0.00  0.00    +0.000 F 
ATOM     28  F   UNL     1      50.169 -23.613  23.539  0.00  0.00    +0.000 F 
ENDBRANCH   3  25
TORSDOF 5
ENDMDL
MODEL 2
REMARK VINA RESULT:    -6.000      3.548      5.243
REMARK INTER + INTRA:          -8.852
REMARK INTER:                  -7.656
REMARK INTRA:                  -1.196
REMARK UNBOUND:                -1.274
REMARK  Name = 
REMARK  6 active torsions:
REMARK  status: ('A' for Active; 'I' for Inactive)
REMARK    1  A    between atoms: C_1  and  C_2
REMARK    2  A    between atoms: C_5  and  C_6
REMARK    3  A    between atoms: C_8  and  C_9
REMARK    4  A    between atoms: N_14  and  C_15
REMARK    5  A    between atoms: C_18  and  S_19
REMARK    6  A    between atoms: S_19  and  N_20
REMARK                            x       y       z     vdW  Elec       q    Type
REMARK                         _______ _______ _______ _____ _____    ______ ____
ROOT
ATOM      1  C   UNL     1      53.948 -28.229  23.094  0.00  0.00    +0.000 A 
ATOM      2  C   UNL     1      53.330 -28.248  21.888  0.00  0.00    +0.000 A 
ATOM      3  C   UNL     1      53.474 -29.510  21.417  0.00  0.00    +0.000 A 
ATOM      4  N   UNL     1      54.139 -30.187  22.313  0.00  0.00    +0.000 NA
ATOM      5  N   UNL     1      54.417 -29.427  23.311  0.00  0.00    +0.000 N 
ENDROOT
BRANCH   1  10
ATOM      6  C   UNL     1      54.442 -23.709  26.713  0.00  0.00    +0.000 C 
ATOM      7  C   UNL     1      54.298 -24.854  25.753  0.00  0.00    +0.000 A 
ATOM      8  C   UNL     1      53.059 -25.449  25.492  0.00  0.00    +0.000 A 
ATOM      9  C   UNL     1      52.935 -26.510  24.640  0.00  0.00    +0.000 A 
ATOM     10  C   UNL     1      54.073 -27.031  24.022  0.00  0.00    +0.000 A 
ATOM     11  C   UNL     1      55.311 -26.465  24.251  0.00  0.00    +0.000 A 
ATOM     12  C   UNL     1      55.410 -25.391  25.119  0.00  0.00    +0.000 A 
ENDBRANCH   1  10
BRANCH   5  13
ATOM     13  C   UNL     1      55.152 -29.844  24.514  0.00  0.00    +0.000 A 
ATOM     14  C   UNL     1      54.471 -29.903  25.718  0.00  0.00    +0.000 A 
ATOM     15  C   UNL     1      55.312 -29.853  26.855  0.00  0.00    +0.000 A 
ATOM     16  C   UNL     1      56.610 -30.092  26.837  0.00  0.00    +0.000 A 
ATOM     17  C   UNL     1      57.213 -30.088  25.610  0.00  0.00    +0.000 A 
ATOM     18  C   UNL     1      56.469 -30.008  24.458  0.00  0.00    +0.000 A 
BRANCH  16  19
ATOM     19  S   UNL     1      57.542 -30.409  28.356  0.00  0.00    +0.000 S 
ATOM     20  O   UNL     1      56.833 -29.743  29.538  0.00  0.00    +0.000 OA
ATOM     21  O   UNL     1      57.629 -31.917  28.597  0.00  0.00    +0.000 OA
BRANCH  19  22
ATOM     22  N   UNL     1      59.165 -29.746  28.197  0.00  0.00    +0.000 NA
ATOM     23  H   UNL     1      59.166 -29.017  27.483  0.00  0.00    +0.000 HD
ATOM     24  H   UNL     1      59.458 -29.347  29.089  0.00  0.00    +0.000 HD
ENDBRANCH  19  22
ENDBRANCH  16  19
ENDBRANCH   5  13
BRANCH   3  25
ATOM     25  C   UNL     1      52.956 -30.040  20.089  0.00  0.00    +0.000 C 
ATOM     26  F   UNL     1      53.875 -29.849  19.147  0.00  0.00    +0.000 F 
ATOM     27  F   UNL     1      52.697 -31.339  20.200  0.00  0.00    +0.000 F 
ATOM     28  F   UNL     1      51.842 -29.393  19.758  0.00  0.00    +0.000 F 
ENDBRANCH   3  25
TORSDOF 5
ENDMDL
MODEL 3
REMARK VINA RESULT:    -5.960      4.342      5.905
REMARK INTER + INTRA:          -8.802
REMARK INTER:                  -7.788
REMARK INTRA:                  -1.013
REMARK UNBOUND:                -1.274
REMARK  Name = 
REMARK  6 active torsions:
REMARK  status: ('A' for Active; 'I' for Inactive)
REMARK    1  A    between atoms: C_1  and  C_2
REMARK    2  A    between atoms: C_5  and  C_6
REMARK    3  A    between atoms: C_8  and  C_9
REMARK    4  A    between atoms: N_14  and  C_15
REMARK    5  A    between atoms: C_18  and  S_19
REMARK    6  A    between atoms: S_19  and  N_20
REMARK                            x       y       z     vdW  Elec       q    Type
REMARK                         _______ _______ _______ _____ _____    ______ ____
ROOT
ATOM      1  C   UNL     1      55.867 -27.100  26.073  0.00  0.00    +0.000 A 
ATOM      2  C   UNL     1      56.171 -26.121  26.959  0.00  0.00    +0.000 A 
ATOM      3  C   UNL     1      55.683 -24.974  26.429  0.00  0.00    +0.000 A 
ATOM      4  N   UNL     1      55.119 -25.279  25.292  0.00  0.00    +0.000 NA
ATOM      5  N   UNL     1      55.225 -26.543  25.083  0.00  0.00    +0.000 N 
ENDROOT
BRANCH   1  10
ATOM      6  C   UNL     1      57.161 -32.749  26.498  0.00  0.00    +0.000 C 
ATOM      7  C   UNL     1      56.826 -31.287  26.425  0.00  0.00    +0.000 A 
ATOM      8  C   UNL     1      55.551 -30.804  26.740  0.00  0.00    +0.000 A 
ATOM      9  C   UNL     1      55.241 -29.477  26.644  0.00  0.00    +0.000 A 
ATOM     10  C   UNL     1      56.211 -28.575  26.207  0.00  0.00    +0.000 A 
ATOM     11  C   UNL     1      57.482 -29.015  25.896  0.00  0.00    +0.000 A 
ATOM     12  C   UNL     1      57.771 -30.364  25.999  0.00  0.00    +0.000 A 
ENDBRANCH   1  10
BRANCH   5  13
ATOM     13  C   UNL     1      54.702 -27.253  23.906  0.00  0.00    +0.000 A 
ATOM     14  C   UNL     1      53.337 -27.234  23.675  0.00  0.00    +0.000 A 
ATOM     15  C   UNL     1      52.883 -28.281  22.838  0.00  0.00    +0.000 A 
ATOM     16  C   UNL     1      53.660 -28.998  22.048  0.00  0.00    +0.000 A 
ATOM     17  C   UNL     1      55.004 -28.921  22.282  0.00  0.00    +0.000 A 
ATOM     18  C   UNL     1      55.513 -28.014  23.180  0.00  0.00    +0.000 A 
BRANCH  16  19
ATOM     19  S   UNL     1      52.982 -30.028  20.723  0.00  0.00    +0.000 S 
ATOM     20  O   UNL     1      52.527 -31.370  21.303  0.00  0.00    +0.000 OA
ATOM     21  O   UNL     1      51.786 -29.318  20.084  0.00  0.00    +0.000 OA
BRANCH  19  22
ATOM     22  N   UNL     1      54.220 -30.306  19.504  0.00  0.00    +0.000 NA
ATOM     23  H   UNL     1      55.085 -30.598  19.959  0.00  0.00    +0.000 HD
ATOM     24  H   UNL     1      53.909 -31.038  18.865  0.00  0.00    +0.000 HD
ENDBRANCH  19  22
ENDBRANCH  16  19
ENDBRANCH   5  13
BRANCH   3  25
ATOM     25  C   UNL     1      55.776 -23.586  27.044  0.00  0.00    +0.000 C 
ATOM     26  F   UNL     1      54.561 -23.176  27.397  0.00  0.00    +0.000 F 
ATOM     27  F   UNL     1      56.560 -23.629  28.117  0.00  0.00    +0.000 F 
ATOM     28  F   UNL     1      56.288 -22.741  26.154  0.00  0.00    +0.000 F 
ENDBRANCH   3  25
TORSDOF 5
ENDMDL
MODEL 4
REMARK VINA RESULT:    -5.888      3.107      3.871
REMARK INTER + INTRA:          -8.711
REMARK INTER:                  -7.574
REMARK INTRA:                  -1.137
REMARK UNBOUND:                -1.274
REMARK  Name = 
REMARK  6 active torsions:
REMARK  status: ('A' for Active; 'I' for Inactive)
REMARK    1  A    between atoms: C_1  and  C_2
REMARK    2  A    between atoms: C_5  and  C_6
REMARK    3  A    between atoms: C_8  and  C_9
REMARK    4  A    between atoms: N_14  and  C_15
REMARK    5  A    between atoms: C_18  and  S_19
REMARK    6  A    between atoms: S_19  and  N_20
REMARK                            x       y       z     vdW  Elec       q    Type
REMARK                         _______ _______ _______ _____ _____    ______ ____
ROOT
ATOM      1  C   UNL     1      55.096 -26.549  25.072  0.00  0.00    +0.000 A 
ATOM      2  C   UNL     1      54.963 -25.203  25.147  0.00  0.00    +0.000 A 
ATOM      3  C   UNL     1      55.536 -24.837  26.319  0.00  0.00    +0.000 A 
ATOM      4  N   UNL     1      55.984 -25.923  26.889  0.00  0.00    +0.000 NA
ATOM      5  N   UNL     1      55.726 -26.939  26.146  0.00  0.00    +0.000 N 
ENDROOT
BRANCH   1  10
ATOM      6  C   UNL     1      53.216 -29.890  20.704  0.00  0.00    +0.000 C 
ATOM      7  C   UNL     1      53.689 -29.052  21.857  0.00  0.00    +0.000 A 
ATOM      8  C   UNL     1      52.798 -28.341  22.669  0.00  0.00    +0.000 A 
ATOM      9  C   UNL     1      53.233 -27.556  23.699  0.00  0.00    +0.000 A 
ATOM     10  C   UNL     1      54.602 -27.442  23.945  0.00  0.00    +0.000 A 
ATOM     11  C   UNL     1      55.509 -28.135  23.169  0.00  0.00    +0.000 A 
ATOM     12  C   UNL     1      55.043 -28.922  22.130  0.00  0.00    +0.000 A 
ENDBRANCH   1  10
BRANCH   5  13
ATOM     13  C   UNL     1      56.086 -28.330  26.460  0.00  0.00    +0.000 A 
ATOM     14  C   UNL     1      57.346 -28.783  26.107  0.00  0.00    +0.000 A 
ATOM     15  C   UNL     1      57.444 -30.192  26.015  0.00  0.00    +0.000 A 
ATOM     16  C   UNL     1      56.581 -31.038  26.544  0.00  0.00    +0.000 A 
ATOM     17  C   UNL     1      55.379 -30.517  26.936  0.00  0.00    +0.000 A 
ATOM     18  C   UNL     1      55.162 -29.160  26.931  0.00  0.00    +0.000 A 
BRANCH  16  19
ATOM     19  S   UNL     1      56.967 -32.795  26.742  0.00  0.00    +0.000 S 
ATOM     20  O   UNL     1      55.672 -33.580  26.965  0.00  0.00    +0.000 OA
ATOM     21  O   UNL     1      57.664 -33.310  25.481  0.00  0.00    +0.000 OA
BRANCH  19  22
ATOM     22  N   UNL     1      58.028 -33.010  28.129  0.00  0.00    +0.000 NA
ATOM     23  H   UNL     1      58.293 -33.992  28.205  0.00  0.00    +0.000 HD
ATOM     24  H   UNL     1      58.866 -32.442  28.007  0.00  0.00    +0.000 HD
ENDBRANCH  19  22
ENDBRANCH  16  19
ENDBRANCH   5  13
BRANCH   3  25
ATOM     25  C   UNL     1      55.639 -23.423  26.868  0.00  0.00    +0.000 C 
ATOM     26  F   UNL     1      56.541 -22.741  26.168  0.00  0.00    +0.000 F 
ATOM     27  F   UNL     1      54.456 -22.824  26.773  0.00  0.00    +0.000 F 
ATOM     28  F   UNL     1      56.011 -23.470  28.144  0.00  0.00    +0.000 F 
ENDBRANCH   3  25
TORSDOF 5
ENDMDL
MODEL 5
REMARK VINA RESULT:    -5.701      4.205      5.500
REMARK INTER + INTRA:          -8.475
REMARK INTER:                  -7.201
REMARK INTRA:                  -1.274
REMARK UNBOUND:                -1.274
REMARK  Name = 
REMARK  6 active torsions:
REMARK  status: ('A' for Active; 'I' for Inactive)
REMARK    1  A    between atoms: C_1  and  C_2
REMARK    2  A    between atoms: C_5  and  C_6
REMARK    3  A    between atoms: C_8  and  C_9
REMARK    4  A    between atoms: N_14  and  C_15
REMARK    5  A    between atoms: C_18  and  S_19
REMARK    6  A    between atoms: S_19  and  N_20
REMARK                            x       y       z     vdW  Elec       q    Type
REMARK                         _______ _______ _______ _____ _____    ______ ____
ROOT
ATOM      1  C   UNL     1      54.475 -29.539  23.302  0.00  0.00    +0.000 A 
ATOM      2  C   UNL     1      54.165 -30.382  22.287  0.00  0.00    +0.000 A 
ATOM      3  C   UNL     1      53.573 -29.620  21.337  0.00  0.00    +0.000 A 
ATOM      4  N   UNL     1      53.549 -28.393  21.781  0.00  0.00    +0.000 NA
ATOM      5  N   UNL     1      54.088 -28.344  22.946  0.00  0.00    +0.000 N 
ENDROOT
BRANCH   1  10
ATOM      6  C   UNL     1      57.041 -30.889  28.337  0.00  0.00    +0.000 C 
ATOM      7  C   UNL     1      56.390 -30.572  27.022  0.00  0.00    +0.000 A 
ATOM      8  C   UNL     1      57.137 -30.216  25.894  0.00  0.00    +0.000 A 
ATOM      9  C   UNL     1      56.540 -29.900  24.706  0.00  0.00    +0.000 A 
ATOM     10  C   UNL     1      55.148 -29.915  24.612  0.00  0.00    +0.000 A 
ATOM     11  C   UNL     1      54.379 -30.269  25.702  0.00  0.00    +0.000 A 
ATOM     12  C   UNL     1      55.008 -30.583  26.895  0.00  0.00    +0.000 A 
ENDBRANCH   1  10
BRANCH   5  13
ATOM     13  C   UNL     1      54.245 -27.127  23.756  0.00  0.00    +0.000 A 
ATOM     14  C   UNL     1      55.511 -26.582  23.892  0.00  0.00    +0.000 A 
ATOM     15  C   UNL     1      55.652 -25.732  25.015  0.00  0.00    +0.000 A 
ATOM     16  C   UNL     1      54.645 -25.195  25.678  0.00  0.00    +0.000 A 
ATOM     17  C   UNL     1      53.409 -25.733  25.449  0.00  0.00    +0.000 A 
ATOM     18  C   UNL     1      53.216 -26.663  24.457  0.00  0.00    +0.000 A 
BRANCH  16  19
ATOM     19  S   UNL     1      54.886 -23.819  26.829  0.00  0.00    +0.000 S 
ATOM     20  O   UNL     1      53.573 -23.048  26.985  0.00  0.00    +0.000 OA
ATOM     21  O   UNL     1      55.323 -24.362  28.191  0.00  0.00    +0.000 OA
BRANCH  19  22
ATOM     22  N   UNL     1      56.128 -22.741  26.201  0.00  0.00    +0.000 NA
ATOM     23  H   UNL     1      55.736 -21.807  26.076  0.00  0.00    +0.000 HD
ATOM     24  H   UNL     1      56.905 -22.696  26.861  0.00  0.00    +0.000 HD
ENDBRANCH  19  22
ENDBRANCH  16  19
ENDBRANCH   5  13
BRANCH   3  25
ATOM     25  C   UNL     1      53.036 -30.105  19.999  0.00  0.00    +0.000 C 
ATOM     26  F   UNL     1      52.774 -31.406  20.072  0.00  0.00    +0.000 F 
ATOM     27  F   UNL     1      51.920 -29.444  19.704  0.00  0.00    +0.000 F 
ATOM     28  F   UNL     1      53.944 -29.887  19.053  0.00  0.00    +0.000 F 
ENDBRANCH   3  25
TORSDOF 5
ENDMDL
