MODEL 1
REMARK VINA RESULT:    -5.484      0.000      0.000
REMARK INTER + INTRA:          10.557
REMARK INTER:                  -5.994
REMARK INTRA:                  16.551
REMARK UNBOUND:                16.522
REMARK  Name = 
REMARK  2 active torsions:
REMARK  status: ('A' for Active; 'I' for Inactive)
REMARK    1  A    between atoms: C_4  and  C_7
REMARK    2  A    between atoms: C_12  and  O_18
REMARK                            x       y       z     vdW  Elec       q    Type
REMARK                         _______ _______ _______ _____ _____    ______ ____
ROOT
ATOM      1  C   UNL     1      56.198 -30.597  23.775  0.00  0.00    +0.000 A 
ATOM      2  C   UNL     1      57.302 -30.171  24.595  0.00  0.00    +0.000 A 
ATOM      3  C   UNL     1      57.297 -28.856  25.183  0.00  0.00    +0.000 A 
ATOM      4  O   UNL     1      58.272 -28.481  25.908  0.00  0.00    +0.000 OA
ATOM      5  C   UNL     1      56.126 -27.918  24.938  0.00  0.00    +0.000 A 
ATOM      6  C   UNL     1      56.373 -26.594  24.620  0.00  0.00    +0.000 A 
ATOM      7  C   UNL     1      55.230 -25.762  24.703  0.00  0.00    +0.000 A 
ATOM      8  C   UNL     1      53.985 -26.200  24.717  0.00  0.00    +0.000 A 
ATOM      9  C   UNL     1      53.811 -27.532  24.970  0.00  0.00    +0.000 A 
ATOM     10  C   UNL     1      54.886 -28.385  25.033  0.00  0.00    +0.000 A 
ATOM     11  O   UNL     1      56.203 -31.825  23.225  0.00  0.00    +0.000 OA
ENDROOT
BRANCH   1  15
ATOM     12  C   UNL     1      52.828 -28.115  22.924  0.00  0.00    +0.000 A 
ATOM     13  C   UNL     1      52.680 -29.148  23.835  0.00  0.00    +0.000 A 
ATOM     14  C   UNL     1      53.899 -29.763  24.207  0.00  0.00    +0.000 A 
ATOM     15  C   UNL     1      55.027 -29.659  23.529  0.00  0.00    +0.000 A 
ATOM     16  C   UNL     1      55.086 -28.662  22.595  0.00  0.00    +0.000 A 
ATOM     17  C   UNL     1      53.969 -27.930  22.271  0.00  0.00    +0.000 A 
ENDBRANCH   1  15
BRANCH   6  18
ATOM     18  O   UNL     1      57.655 -26.112  24.244  0.00  0.00    +0.000 OA
ATOM     19  H   UNL     1      58.467 -26.411  24.746  0.00  0.00    +0.000 HD
ENDBRANCH   6  18
TORSDOF 2
ENDMDL
MODEL 2
REMARK VINA RESULT:    -5.262      1.372      3.610
REMARK INTER + INTRA:          10.798
REMARK INTER:                  -5.772
REMARK INTRA:                  16.571
REMARK UNBOUND:                16.522
REMARK  Name = 
REMARK  2 active torsions:
REMARK  status: ('A' for Active; 'I' for Inactive)
REMARK    1  A    between atoms: C_4  and  C_7
REMARK    2  A    between atoms: C_12  and  O_18
REMARK                            x       y       z     vdW  Elec       q    Type
REMARK                         _______ _______ _______ _____ _____    ______ ____
ROOT
ATOM      1  C   UNL     1      54.953 -26.418  24.756  0.00  0.00    +0.000 A 
ATOM      2  C   UNL     1      56.342 -26.662  25.049  0.00  0.00    +0.000 A 
ATOM      3  C   UNL     1      56.973 -27.872  24.589  0.00  0.00    +0.000 A 
ATOM      4  O   UNL     1      58.199 -28.087  24.847  0.00  0.00    +0.000 OA
ATOM      5  C   UNL     1      56.174 -28.891  23.794  0.00  0.00    +0.000 A 
ATOM      6  C   UNL     1      56.286 -30.236  24.106  0.00  0.00    +0.000 A 
ATOM      7  C   UNL     1      55.737 -31.099  23.127  0.00  0.00    +0.000 A 
ATOM      8  C   UNL     1      54.883 -30.724  22.193  0.00  0.00    +0.000 A 
ATOM      9  C   UNL     1      54.768 -29.379  21.978  0.00  0.00    +0.000 A 
ATOM     10  C   UNL     1      55.381 -28.476  22.812  0.00  0.00    +0.000 A 
ATOM     11  O   UNL     1      54.363 -25.288  25.187  0.00  0.00    +0.000 OA
ENDROOT
BRANCH   1  15
ATOM     12  C   UNL     1      52.510 -29.161  22.577  0.00  0.00    +0.000 A 
ATOM     13  C   UNL     1      52.927 -27.999  21.950  0.00  0.00    +0.000 A 
ATOM     14  C   UNL     1      53.902 -27.274  22.675  0.00  0.00    +0.000 A 
ATOM     15  C   UNL     1      54.154 -27.437  23.961  0.00  0.00    +0.000 A 
ATOM     16  C   UNL     1      53.657 -28.573  24.538  0.00  0.00    +0.000 A 
ATOM     17  C   UNL     1      52.802 -29.400  23.850  0.00  0.00    +0.000 A 
ENDBRANCH   1  15
BRANCH   6  18
ATOM     18  O   UNL     1      56.897 -30.706  25.298  0.00  0.00    +0.000 OA
ATOM     19  H   UNL     1      57.114 -31.678  25.398  0.00  0.00    +0.000 HD
ENDBRANCH   6  18
TORSDOF 2
ENDMDL
MODEL 3
REMARK VINA RESULT:    -5.212      1.937      3.092
REMARK INTER + INTRA:          10.852
REMARK INTER:                  -5.689
REMARK INTRA:                  16.541
REMARK UNBOUND:                16.522
REMARK  Name = 
REMARK  2 active torsions:
REMARK  status: ('A' for Active; 'I' for Inactive)
REMARK    1  A    between atoms: C_4  and  C_7
REMARK    2  A    between atoms: C_12  and  O_18
REMARK                            x       y       z     vdW  Elec       q    Type
REMARK                         _______ _______ _______ _____ _____    ______ ____
ROOT
ATOM      1  C   UNL     1      55.455 -28.426  23.415  0.00  0.00    +0.000 A 
ATOM      2  C   UNL     1      56.133 -29.595  23.912  0.00  0.00    +0.000 A 
ATOM      3  C   UNL     1      56.552 -29.653  25.289  0.00  0.00    +0.000 A 
ATOM      4  O   UNL     1      57.150 -30.686  25.728  0.00  0.00    +0.000 OA
ATOM      5  C   UNL     1      56.280 -28.481  26.217  0.00  0.00    +0.000 A 
ATOM      6  C   UNL     1      57.284 -28.032  27.058  0.00  0.00    +0.000 A 
ATOM      7  C   UNL     1      56.834 -27.147  28.066  0.00  0.00    +0.000 A 
ATOM      8  C   UNL     1      55.683 -26.500  28.037  0.00  0.00    +0.000 A 
ATOM      9  C   UNL     1      54.757 -26.949  27.136  0.00  0.00    +0.000 A 
ATOM     10  C   UNL     1      55.082 -27.905  26.205  0.00  0.00    +0.000 A 
ATOM     11  O   UNL     1      55.064 -28.372  22.129  0.00  0.00    +0.000 OA
ENDROOT
BRANCH   1  15
ATOM     12  C   UNL     1      54.617 -25.006  25.832  0.00  0.00    +0.000 A 
ATOM     13  C   UNL     1      53.582 -25.875  25.527  0.00  0.00    +0.000 A 
ATOM     14  C   UNL     1      54.005 -27.078  24.914  0.00  0.00    +0.000 A 
ATOM     15  C   UNL     1      55.182 -27.254  24.342  0.00  0.00    +0.000 A 
ATOM     16  C   UNL     1      56.143 -26.324  24.630  0.00  0.00    +0.000 A 
ATOM     17  C   UNL     1      55.836 -25.186  25.336  0.00  0.00    +0.000 A 
ENDBRANCH   1  15
BRANCH   6  18
ATOM     18  O   UNL     1      58.642 -28.426  26.923  0.00  0.00    +0.000 OA
ATOM     19  H   UNL     1      59.140 -28.218  26.081  0.00  0.00    +0.000 HD
ENDBRANCH   6  18
TORSDOF 2
ENDMDL
MODEL 4
REMARK VINA RESULT:    -5.125      2.279      3.963
REMARK INTER + INTRA:          10.947
REMARK INTER:                  -5.575
REMARK INTRA:                  16.522
REMARK UNBOUND:                16.522
REMARK  Name = 
REMARK  2 active torsions:
REMARK  status: ('A' for Active; 'I' for Inactive)
REMARK    1  A    between atoms: C_4  and  C_7
REMARK    2  A    between atoms: C_12  and  O_18
REMARK                            x       y       z     vdW  Elec       q    Type
REMARK                         _______ _______ _______ _____ _____    ______ ____
ROOT
ATOM      1  C   UNL     1      57.010 -28.492  28.351  0.00  0.00    +0.000 A 
ATOM      2  C   UNL     1      56.700 -27.098  28.166  0.00  0.00    +0.000 A 
ATOM      3  C   UNL     1      56.218 -26.630  26.891  0.00  0.00    +0.000 A 
ATOM      4  O   UNL     1      55.944 -25.400  26.729  0.00  0.00    +0.000 OA
ATOM      5  C   UNL     1      56.038 -27.608  25.742  0.00  0.00    +0.000 A 
ATOM      6  C   UNL     1      56.489 -27.262  24.479  0.00  0.00    +0.000 A 
ATOM      7  C   UNL     1      56.011 -28.107  23.449  0.00  0.00    +0.000 A 
ATOM      8  C   UNL     1      55.498 -29.308  23.643  0.00  0.00    +0.000 A 
ATOM      9  C   UNL     1      55.134 -29.614  24.925  0.00  0.00    +0.000 A 
ATOM     10  C   UNL     1      55.450 -28.777  25.968  0.00  0.00    +0.000 A 
ATOM     11  O   UNL     1      57.461 -28.928  29.541  0.00  0.00    +0.000 OA
ENDROOT
BRANCH   1  15
ATOM     12  C   UNL     1      56.610 -31.405  25.253  0.00  0.00    +0.000 A 
ATOM     13  C   UNL     1      55.655 -31.365  26.256  0.00  0.00    +0.000 A 
ATOM     14  C   UNL     1      55.758 -30.234  27.100  0.00  0.00    +0.000 A 
ATOM     15  C   UNL     1      56.830 -29.469  27.201  0.00  0.00    +0.000 A 
ATOM     16  C   UNL     1      57.768 -29.605  26.216  0.00  0.00    +0.000 A 
ATOM     17  C   UNL     1      57.668 -30.603  25.278  0.00  0.00    +0.000 A 
ENDBRANCH   1  15
BRANCH   6  18
ATOM     18  O   UNL     1      57.352 -26.160  24.239  0.00  0.00    +0.000 OA
ATOM     19  H   UNL     1      57.806 -25.705  25.005  0.00  0.00    +0.000 HD
ENDBRANCH   6  18
TORSDOF 2
ENDMDL
