MODEL 1
REMARK VINA RESULT:    -5.689      0.000      0.000
REMARK INTER + INTRA:          -6.707
REMARK INTER:                  -6.321
REMARK INTRA:                  -0.386
REMARK UNBOUND:                -0.353
REMARK  Name = 
REMARK  3 active torsions:
REMARK  status: ('A' for Active; 'I' for Inactive)
REMARK    1  A    between atoms: C_1  and  O_2
REMARK    2  A    between atoms: O_2  and  C_3
REMARK    3  A    between atoms: C_12  and  C_14
REMARK                            x       y       z     vdW  Elec       q    Type
REMARK                         _______ _______ _______ _____ _____    ______ ____
ROOT
ATOM      1  C   UNL     1      55.856 -28.175  25.044  0.00  0.00    +0.000 A 
ATOM      2  C   UNL     1      56.215 -28.929  23.947  0.00  0.00    +0.000 A 
ATOM      3  C   UNL     1      55.441 -28.889  22.794  0.00  0.00    +0.000 A 
ATOM      4  C   UNL     1      54.310 -28.100  22.724  0.00  0.00    +0.000 A 
ATOM      5  C   UNL     1      53.976 -27.347  23.838  0.00  0.00    +0.000 A 
ATOM      6  C   UNL     1      54.714 -27.366  25.004  0.00  0.00    +0.000 A 
ATOM      7  C   UNL     1      54.312 -26.544  26.174  0.00  0.00    +0.000 A 
ATOM      8  O   UNL     1      54.998 -26.587  27.197  0.00  0.00    +0.000 OA
ATOM      9  C   UNL     1      53.131 -25.724  25.987  0.00  0.00    +0.000 A 
ATOM     10  C   UNL     1      52.481 -25.745  24.735  0.00  0.00    +0.000 A 
ATOM     11  O   UNL     1      52.850 -26.551  23.718  0.00  0.00    +0.000 OA
ENDROOT
BRANCH  10  12
ATOM     12  C   UNL     1      51.301 -24.810  24.521  0.00  0.00    +0.000 A 
ATOM     13  C   UNL     1      50.484 -24.989  23.416  0.00  0.00    +0.000 A 
ATOM     14  C   UNL     1      49.615 -23.901  23.164  0.00  0.00    +0.000 A 
ATOM     15  C   UNL     1      49.310 -22.966  24.046  0.00  0.00    +0.000 A 
ATOM     16  C   UNL     1      50.115 -22.885  25.148  0.00  0.00    +0.000 A 
ATOM     17  C   UNL     1      51.074 -23.837  25.395  0.00  0.00    +0.000 A 
ENDBRANCH  10  12
BRANCH   1  19
ATOM     18  C   UNL     1      57.988 -28.713  26.147  0.00  0.00    +0.000 C 
ATOM     19  O   UNL     1      56.690 -28.139  26.193  0.00  0.00    +0.000 OA
ENDBRANCH   1  19
TORSDOF 2
ENDMDL
MODEL 2
REMARK VINA RESULT:    -5.566      1.777      2.506
REMARK INTER + INTRA:          -6.570
REMARK INTER:                  -6.213
REMARK INTRA:                  -0.357
REMARK UNBOUND:                -0.353
REMARK  Name = 
REMARK  3 active torsions:
REMARK  status: ('A' for Active; 'I' for Inactive)
REMARK    1  A    between atoms: C_1  and  O_2
REMARK    2  A    between atoms: O_2  and  C_3
REMARK    3  A    between atoms: C_12  and  C_14
REMARK                            x       y       z     vdW  Elec       q    Type
REMARK                         _______ _______ _______ _____ _____    ______ ____
ROOT
ATOM      1  C   UNL     1      56.172 -29.525  24.283  0.00  0.00    +0.000 A 
ATOM      2  C   UNL     1      57.429 -29.024  24.543  0.00  0.00    +0.000 A 
ATOM      3  C   UNL     1      57.612 -27.657  24.702  0.00  0.00    +0.000 A 
ATOM      4  C   UNL     1      56.548 -26.781  24.606  0.00  0.00    +0.000 A 
ATOM      5  C   UNL     1      55.294 -27.311  24.349  0.00  0.00    +0.000 A 
ATOM      6  C   UNL     1      55.074 -28.663  24.177  0.00  0.00    +0.000 A 
ATOM      7  C   UNL     1      53.710 -29.183  23.900  0.00  0.00    +0.000 A 
ATOM      8  O   UNL     1      53.554 -30.397  23.753  0.00  0.00    +0.000 OA
ATOM      9  C   UNL     1      52.657 -28.188  23.853  0.00  0.00    +0.000 A 
ATOM     10  C   UNL     1      52.989 -26.837  24.092  0.00  0.00    +0.000 A 
ATOM     11  O   UNL     1      54.252 -26.403  24.286  0.00  0.00    +0.000 OA
ENDROOT
BRANCH  10  12
ATOM     12  C   UNL     1      51.863 -25.816  24.135  0.00  0.00    +0.000 A 
ATOM     13  C   UNL     1      50.918 -25.803  23.121  0.00  0.00    +0.000 A 
ATOM     14  C   UNL     1      50.107 -24.644  23.109  0.00  0.00    +0.000 A 
ATOM     15  C   UNL     1      49.968 -23.816  24.128  0.00  0.00    +0.000 A 
ATOM     16  C   UNL     1      50.893 -23.925  25.130  0.00  0.00    +0.000 A 
ATOM     17  C   UNL     1      51.803 -24.954  25.143  0.00  0.00    +0.000 A 
ENDBRANCH  10  12
BRANCH   1  19
ATOM     18  C   UNL     1      57.067 -31.815  24.228  0.00  0.00    +0.000 C 
ATOM     19  O   UNL     1      55.960 -30.928  24.209  0.00  0.00    +0.000 OA
ENDBRANCH   1  19
TORSDOF 2
ENDMDL
MODEL 3
REMARK VINA RESULT:    -5.527      2.498      4.381
REMARK INTER + INTRA:          -6.527
REMARK INTER:                  -6.172
REMARK INTRA:                  -0.355
REMARK UNBOUND:                -0.353
REMARK  Name = 
REMARK  3 active torsions:
REMARK  status: ('A' for Active; 'I' for Inactive)
REMARK    1  A    between atoms: C_1  and  O_2
REMARK    2  A    between atoms: O_2  and  C_3
REMARK    3  A    between atoms: C_12  and  C_14
REMARK                            x       y       z     vdW  Elec       q    Type
REMARK                         _______ _______ _______ _____ _____    ______ ____
ROOT
ATOM      1  C   UNL     1      56.215 -30.821  23.483  0.00  0.00    +0.000 A 
ATOM      2  C   UNL     1      57.136 -31.531  24.224  0.00  0.00    +0.000 A 
ATOM      3  C   UNL     1      57.745 -30.941  25.323  0.00  0.00    +0.000 A 
ATOM      4  C   UNL     1      57.441 -29.645  25.694  0.00  0.00    +0.000 A 
ATOM      5  C   UNL     1      56.508 -28.957  24.937  0.00  0.00    +0.000 A 
ATOM      6  C   UNL     1      55.888 -29.506  23.833  0.00  0.00    +0.000 A 
ATOM      7  C   UNL     1      54.896 -28.724  23.050  0.00  0.00    +0.000 A 
ATOM      8  O   UNL     1      54.362 -29.250  22.070  0.00  0.00    +0.000 OA
ATOM      9  C   UNL     1      54.621 -27.389  23.541  0.00  0.00    +0.000 A 
ATOM     10  C   UNL     1      55.278 -26.946  24.709  0.00  0.00    +0.000 A 
ATOM     11  O   UNL     1      56.214 -27.671  25.357  0.00  0.00    +0.000 OA
ENDROOT
BRANCH  10  12
ATOM     12  C   UNL     1      54.911 -25.581  25.268  0.00  0.00    +0.000 A 
ATOM     13  C   UNL     1      55.884 -24.598  25.354  0.00  0.00    +0.000 A 
ATOM     14  C   UNL     1      55.509 -23.489  26.148  0.00  0.00    +0.000 A 
ATOM     15  C   UNL     1      54.266 -23.197  26.488  0.00  0.00    +0.000 A 
ATOM     16  C   UNL     1      53.340 -24.187  26.316  0.00  0.00    +0.000 A 
ATOM     17  C   UNL     1      53.664 -25.353  25.666  0.00  0.00    +0.000 A 
ENDBRANCH  10  12
BRANCH   1  19
ATOM     18  C   UNL     1      55.246 -32.838  22.462  0.00  0.00    +0.000 C 
ATOM     19  O   UNL     1      55.520 -31.446  22.414  0.00  0.00    +0.000 OA
ENDBRANCH   1  19
TORSDOF 2
ENDMDL
MODEL 4
REMARK VINA RESULT:    -5.469      1.541      2.826
REMARK INTER + INTRA:          -6.462
REMARK INTER:                  -6.068
REMARK INTRA:                  -0.393
REMARK UNBOUND:                -0.353
REMARK  Name = 
REMARK  3 active torsions:
REMARK  status: ('A' for Active; 'I' for Inactive)
REMARK    1  A    between atoms: C_1  and  O_2
REMARK    2  A    between atoms: O_2  and  C_3
REMARK    3  A    between atoms: C_12  and  C_14
REMARK                            x       y       z     vdW  Elec       q    Type
REMARK                         _______ _______ _______ _____ _____    ______ ____
ROOT
ATOM      1  C   UNL     1      57.064 -28.677  25.630  0.00  0.00    +0.000 A 
ATOM      2  C   UNL     1      57.648 -28.727  26.877  0.00  0.00    +0.000 A 
ATOM      3  C   UNL     1      57.142 -27.950  27.912  0.00  0.00    +0.000 A 
ATOM      4  C   UNL     1      56.053 -27.123  27.713  0.00  0.00    +0.000 A 
ATOM      5  C   UNL     1      55.482 -27.097  26.452  0.00  0.00    +0.000 A 
ATOM      6  C   UNL     1      55.960 -27.847  25.397  0.00  0.00    +0.000 A 
ATOM      7  C   UNL     1      55.315 -27.781  24.061  0.00  0.00    +0.000 A 
ATOM      8  O   UNL     1      55.771 -28.467  23.144  0.00  0.00    +0.000 OA
ATOM      9  C   UNL     1      54.159 -26.911  23.965  0.00  0.00    +0.000 A 
ATOM     10  C   UNL     1      53.727 -26.228  25.122  0.00  0.00    +0.000 A 
ATOM     11  O   UNL     1      54.378 -26.275  26.302  0.00  0.00    +0.000 OA
ENDROOT
BRANCH  10  12
ATOM     12  C   UNL     1      52.458 -25.394  25.033  0.00  0.00    +0.000 A 
ATOM     13  C   UNL     1      51.500 -25.715  24.085  0.00  0.00    +0.000 A 
ATOM     14  C   UNL     1      50.519 -24.711  23.900  0.00  0.00    +0.000 A 
ATOM     15  C   UNL     1      50.279 -23.733  24.753  0.00  0.00    +0.000 A 
ATOM     16  C   UNL     1      51.232 -23.510  25.708  0.00  0.00    +0.000 A 
ATOM     17  C   UNL     1      52.290 -24.372  25.865  0.00  0.00    +0.000 A 
ENDBRANCH  10  12
BRANCH   1  19
ATOM     18  C   UNL     1      57.649 -30.928  24.829  0.00  0.00    +0.000 C 
ATOM     19  O   UNL     1      57.516 -29.534  24.592  0.00  0.00    +0.000 OA
ENDBRANCH   1  19
TORSDOF 2
ENDMDL
MODEL 5
REMARK VINA RESULT:    -5.419      4.296      5.481
REMARK INTER + INTRA:          -6.406
REMARK INTER:                  -6.052
REMARK INTRA:                  -0.353
REMARK UNBOUND:                -0.353
REMARK  Name = 
REMARK  3 active torsions:
REMARK  status: ('A' for Active; 'I' for Inactive)
REMARK    1  A    between atoms: C_1  and  O_2
REMARK    2  A    between atoms: O_2  and  C_3
REMARK    3  A    between atoms: C_12  and  C_14
REMARK                            x       y       z     vdW  Elec       q    Type
REMARK                         _______ _______ _______ _____ _____    ______ ____
ROOT
ATOM      1  C   UNL     1      57.236 -30.087  24.730  0.00  0.00    +0.000 A 
ATOM      2  C   UNL     1      57.700 -31.344  25.053  0.00  0.00    +0.000 A 
ATOM      3  C   UNL     1      57.156 -32.465  24.440  0.00  0.00    +0.000 A 
ATOM      4  C   UNL     1      56.150 -32.342  23.501  0.00  0.00    +0.000 A 
ATOM      5  C   UNL     1      55.706 -31.068  23.190  0.00  0.00    +0.000 A 
ATOM      6  C   UNL     1      56.217 -29.931  23.784  0.00  0.00    +0.000 A 
ATOM      7  C   UNL     1      55.704 -28.586  23.419  0.00  0.00    +0.000 A 
ATOM      8  O   UNL     1      56.186 -27.594  23.971  0.00  0.00    +0.000 OA
ATOM      9  C   UNL     1      54.674 -28.562  22.399  0.00  0.00    +0.000 A 
ATOM     10  C   UNL     1      54.261 -29.783  21.824  0.00  0.00    +0.000 A 
ATOM     11  O   UNL     1      54.716 -30.988  22.226  0.00  0.00    +0.000 OA
ENDROOT
BRANCH  10  12
ATOM     12  C   UNL     1      53.250 -29.738  20.689  0.00  0.00    +0.000 A 
ATOM     13  C   UNL     1      51.998 -29.190  20.916  0.00  0.00    +0.000 A 
ATOM     14  C   UNL     1      51.058 -29.466  19.894  0.00  0.00    +0.000 A 
ATOM     15  C   UNL     1      51.372 -29.873  18.678  0.00  0.00    +0.000 A 
ATOM     16  C   UNL     1      52.645 -30.339  18.502  0.00  0.00    +0.000 A 
ATOM     17  C   UNL     1      53.583 -30.225  19.499  0.00  0.00    +0.000 A 
ENDBRANCH  10  12
BRANCH   1  19
ATOM     18  C   UNL     1      58.405 -28.980  26.589  0.00  0.00    +0.000 C 
ATOM     19  O   UNL     1      57.849 -28.932  25.284  0.00  0.00    +0.000 OA
ENDBRANCH   1  19
TORSDOF 2
ENDMDL
