MODEL 1
REMARK VINA RESULT:    -7.549      0.000      0.000
REMARK INTER + INTRA:          -9.989
REMARK INTER:                  -9.533
REMARK INTRA:                  -0.456
REMARK UNBOUND:                -0.454
REMARK  Name = 
REMARK  7 active torsions:
REMARK  status: ('A' for Active; 'I' for Inactive)
REMARK    1  A    between atoms: C_1  and  O_2
REMARK    2  A    between atoms: O_2  and  C_3
REMARK    3  A    between atoms: C_5  and  C_6
REMARK    4  A    between atoms: C_7  and  C_8
REMARK    5  A    between atoms: C_11  and  O_12
REMARK    6  A    between atoms: C_16  and  O_17
REMARK    7  A    between atoms: O_17  and  C_18
REMARK                            x       y       z     vdW  Elec       q    Type
REMARK                         _______ _______ _______ _____ _____    ______ ____
ROOT
ATOM      1  C   UNL     1      31.499  23.376  69.166  0.00  0.00    +0.000 A 
ATOM      2  C   UNL     1      31.849  22.052  68.951  0.00  0.00    +0.000 A 
ATOM      3  C   UNL     1      31.789  21.247  70.113  0.00  0.00    +0.000 A 
ATOM      4  C   UNL     1      31.767  21.715  71.348  0.00  0.00    +0.000 A 
ATOM      5  C   UNL     1      31.483  23.045  71.489  0.00  0.00    +0.000 A 
ATOM      6  C   UNL     1      31.397  23.870  70.394  0.00  0.00    +0.000 A 
ENDROOT
BRANCH   1   8
ATOM      7  C   UNL     1      32.552  24.852  67.504  0.00  0.00    +0.000 C 
ATOM      8  O   UNL     1      31.399  24.196  68.011  0.00  0.00    +0.000 OA
ENDBRANCH   1   8
BRANCH   3   9
ATOM      9  C   UNL     1      31.746  19.740  69.928  0.00  0.00    +0.000 C 
ATOM     10  C   UNL     1      30.593  19.136  69.531  0.00  0.00    +0.000 C 
BRANCH  10  11
ATOM     11  C   UNL     1      30.550  17.628  69.346  0.00  0.00    +0.000 A 
ATOM     12  C   UNL     1      29.622  16.838  70.004  0.00  0.00    +0.000 A 
ATOM     13  C   UNL     1      29.877  15.450  69.905  0.00  0.00    +0.000 A 
ATOM     14  C   UNL     1      30.671  14.897  69.007  0.00  0.00    +0.000 A 
ATOM     15  C   UNL     1      31.517  15.740  68.342  0.00  0.00    +0.000 A 
ATOM     16  C   UNL     1      31.416  17.103  68.487  0.00  0.00    +0.000 A 
BRANCH  14  17
ATOM     17  O   UNL     1      30.647  13.501  68.746  0.00  0.00    +0.000 OA
ATOM     18  H   UNL     1      31.224  12.883  69.280  0.00  0.00    +0.000 HD
ENDBRANCH  14  17
ENDBRANCH  10  11
ENDBRANCH   3   9
BRANCH   5  19
ATOM     19  O   UNL     1      31.274  23.583  72.787  0.00  0.00    +0.000 OA
ATOM     20  C   UNL     1      31.755  24.880  73.105  0.00  0.00    +0.000 C 
ENDBRANCH   5  19
TORSDOF 5
ENDMDL
MODEL 2
REMARK VINA RESULT:    -7.510      1.154      2.958
REMARK INTER + INTRA:          -9.940
REMARK INTER:                  -9.500
REMARK INTRA:                  -0.440
REMARK UNBOUND:                -0.454
REMARK  Name = 
REMARK  7 active torsions:
REMARK  status: ('A' for Active; 'I' for Inactive)
REMARK    1  A    between atoms: C_1  and  O_2
REMARK    2  A    between atoms: O_2  and  C_3
REMARK    3  A    between atoms: C_5  and  C_6
REMARK    4  A    between atoms: C_7  and  C_8
REMARK    5  A    between atoms: C_11  and  O_12
REMARK    6  A    between atoms: C_16  and  O_17
REMARK    7  A    between atoms: O_17  and  C_18
REMARK                            x       y       z     vdW  Elec       q    Type
REMARK                         _______ _______ _______ _____ _____    ______ ____
ROOT
ATOM      1  C   UNL     1      31.680  23.413  71.681  0.00  0.00    +0.000 A 
ATOM      2  C   UNL     1      30.968  22.329  71.191  0.00  0.00    +0.000 A 
ATOM      3  C   UNL     1      31.559  21.719  70.060  0.00  0.00    +0.000 A 
ATOM      4  C   UNL     1      32.474  22.286  69.295  0.00  0.00    +0.000 A 
ATOM      5  C   UNL     1      33.093  23.393  69.807  0.00  0.00    +0.000 A 
ATOM      6  C   UNL     1      32.657  23.970  70.975  0.00  0.00    +0.000 A 
ENDROOT
BRANCH   1   8
ATOM      7  C   UNL     1      32.043  24.868  73.630  0.00  0.00    +0.000 C 
ATOM      8  O   UNL     1      31.216  23.973  72.900  0.00  0.00    +0.000 OA
ENDBRANCH   1   8
BRANCH   3   9
ATOM      9  C   UNL     1      31.108  20.313  69.699  0.00  0.00    +0.000 C 
ATOM     10  C   UNL     1      31.828  19.239  70.121  0.00  0.00    +0.000 C 
BRANCH  10  11
ATOM     11  C   UNL     1      31.378  17.833  69.760  0.00  0.00    +0.000 A 
ATOM     12  C   UNL     1      31.518  17.328  68.477  0.00  0.00    +0.000 A 
ATOM     13  C   UNL     1      30.835  16.109  68.263  0.00  0.00    +0.000 A 
ATOM     14  C   UNL     1      30.404  15.312  69.223  0.00  0.00    +0.000 A 
ATOM     15  C   UNL     1      30.353  15.849  70.480  0.00  0.00    +0.000 A 
ATOM     16  C   UNL     1      30.883  17.089  70.742  0.00  0.00    +0.000 A 
BRANCH  14  17
ATOM     17  O   UNL     1      30.016  13.971  68.966  0.00  0.00    +0.000 OA
ATOM     18  H   UNL     1      29.173  13.782  68.462  0.00  0.00    +0.000 HD
ENDBRANCH  14  17
ENDBRANCH  10  11
ENDBRANCH   3   9
BRANCH   5  19
ATOM     19  O   UNL     1      34.203  23.954  69.121  0.00  0.00    +0.000 OA
ATOM     20  C   UNL     1      33.993  24.782  67.987  0.00  0.00    +0.000 C 
ENDBRANCH   5  19
TORSDOF 5
ENDMDL
MODEL 3
REMARK VINA RESULT:    -7.043      4.439      9.596
REMARK INTER + INTRA:          -9.350
REMARK INTER:                  -8.899
REMARK INTRA:                  -0.451
REMARK UNBOUND:                -0.454
REMARK  Name = 
REMARK  7 active torsions:
REMARK  status: ('A' for Active; 'I' for Inactive)
REMARK    1  A    between atoms: C_1  and  O_2
REMARK    2  A    between atoms: O_2  and  C_3
REMARK    3  A    between atoms: C_5  and  C_6
REMARK    4  A    between atoms: C_7  and  C_8
REMARK    5  A    between atoms: C_11  and  O_12
REMARK    6  A    between atoms: C_16  and  O_17
REMARK    7  A    between atoms: O_17  and  C_18
REMARK                            x       y       z     vdW  Elec       q    Type
REMARK                         _______ _______ _______ _____ _____    ______ ____
ROOT
ATOM      1  C   UNL     1      32.485  22.994  67.399  0.00  0.00    +0.000 A 
ATOM      2  C   UNL     1      32.777  24.345  67.496  0.00  0.00    +0.000 A 
ATOM      3  C   UNL     1      33.280  24.734  68.760  0.00  0.00    +0.000 A 
ATOM      4  C   UNL     1      33.162  24.019  69.865  0.00  0.00    +0.000 A 
ATOM      5  C   UNL     1      32.804  22.709  69.706  0.00  0.00    +0.000 A 
ATOM      6  C   UNL     1      32.426  22.223  68.479  0.00  0.00    +0.000 A 
ENDROOT
BRANCH   1   8
ATOM      7  C   UNL     1      31.146  21.491  65.986  0.00  0.00    +0.000 C 
ATOM      8  O   UNL     1      32.117  22.520  66.112  0.00  0.00    +0.000 OA
ENDBRANCH   1   8
BRANCH   3   9
ATOM      9  C   UNL     1      34.007  26.065  68.853  0.00  0.00    +0.000 C 
ATOM     10  C   UNL     1      34.464  26.508  70.056  0.00  0.00    +0.000 C 
BRANCH  10  11
ATOM     11  C   UNL     1      35.190  27.840  70.149  0.00  0.00    +0.000 A 
ATOM     12  C   UNL     1      34.541  29.042  69.923  0.00  0.00    +0.000 A 
ATOM     13  C   UNL     1      35.411  30.152  69.814  0.00  0.00    +0.000 A 
ATOM     14  C   UNL     1      36.663  30.166  70.232  0.00  0.00    +0.000 A 
ATOM     15  C   UNL     1      37.227  28.950  70.504  0.00  0.00    +0.000 A 
ATOM     16  C   UNL     1      36.470  27.804  70.502  0.00  0.00    +0.000 A 
BRANCH  14  17
ATOM     17  O   UNL     1      37.386  31.378  70.392  0.00  0.00    +0.000 OA
ATOM     18  H   UNL     1      37.002  32.120  70.942  0.00  0.00    +0.000 HD
ENDBRANCH  14  17
ENDBRANCH  10  11
ENDBRANCH   3   9
BRANCH   5  19
ATOM     19  O   UNL     1      32.823  21.838  70.828  0.00  0.00    +0.000 OA
ATOM     20  C   UNL     1      31.762  21.867  71.770  0.00  0.00    +0.000 C 
ENDBRANCH   5  19
TORSDOF 5
ENDMDL
MODEL 4
REMARK VINA RESULT:    -6.981      5.097      9.283
REMARK INTER + INTRA:          -9.272
REMARK INTER:                  -8.798
REMARK INTRA:                  -0.473
REMARK UNBOUND:                -0.454
REMARK  Name = 
REMARK  7 active torsions:
REMARK  status: ('A' for Active; 'I' for Inactive)
REMARK    1  A    between atoms: C_1  and  O_2
REMARK    2  A    between atoms: O_2  and  C_3
REMARK    3  A    between atoms: C_5  and  C_6
REMARK    4  A    between atoms: C_7  and  C_8
REMARK    5  A    between atoms: C_11  and  O_12
REMARK    6  A    between atoms: C_16  and  O_17
REMARK    7  A    between atoms: O_17  and  C_18
REMARK                            x       y       z     vdW  Elec       q    Type
REMARK                         _______ _______ _______ _____ _____    ______ ____
ROOT
ATOM      1  C   UNL     1      32.446  23.059  67.028  0.00  0.00    +0.000 A 
ATOM      2  C   UNL     1      33.066  24.241  67.404  0.00  0.00    +0.000 A 
ATOM      3  C   UNL     1      32.263  25.077  68.215  0.00  0.00    +0.000 A 
ATOM      4  C   UNL     1      30.951  24.973  68.329  0.00  0.00    +0.000 A 
ATOM      5  C   UNL     1      30.391  23.810  67.876  0.00  0.00    +0.000 A 
ATOM      6  C   UNL     1      31.140  22.885  67.191  0.00  0.00    +0.000 A 
ENDROOT
BRANCH   1   8
ATOM      7  C   UNL     1      34.613  21.939  66.710  0.00  0.00    +0.000 C 
ATOM      8  O   UNL     1      33.253  22.116  66.339  0.00  0.00    +0.000 OA
ENDBRANCH   1   8
BRANCH   3   9
ATOM      9  C   UNL     1      32.957  26.170  69.009  0.00  0.00    +0.000 C 
ATOM     10  C   UNL     1      34.260  26.024  69.372  0.00  0.00    +0.000 C 
BRANCH  10  11
ATOM     11  C   UNL     1      34.955  27.117  70.168  0.00  0.00    +0.000 A 
ATOM     12  C   UNL     1      34.245  28.010  70.955  0.00  0.00    +0.000 A 
ATOM     13  C   UNL     1      35.018  29.097  71.427  0.00  0.00    +0.000 A 
ATOM     14  C   UNL     1      36.337  29.122  71.456  0.00  0.00    +0.000 A 
ATOM     15  C   UNL     1      36.979  28.171  70.711  0.00  0.00    +0.000 A 
ATOM     16  C   UNL     1      36.281  27.152  70.111  0.00  0.00    +0.000 A 
BRANCH  14  17
ATOM     17  O   UNL     1      37.051  30.083  72.219  0.00  0.00    +0.000 OA
ATOM     18  H   UNL     1      37.810  30.586  71.806  0.00  0.00    +0.000 HD
ENDBRANCH  14  17
ENDBRANCH  10  11
ENDBRANCH   3   9
BRANCH   5  19
ATOM     19  O   UNL     1      29.016  23.555  68.119  0.00  0.00    +0.000 OA
ATOM     20  C   UNL     1      28.481  22.260  67.886  0.00  0.00    +0.000 C 
ENDBRANCH   5  19
TORSDOF 5
ENDMDL
MODEL 5
REMARK VINA RESULT:    -6.857      3.974      5.815
REMARK INTER + INTRA:          -9.115
REMARK INTER:                  -8.661
REMARK INTRA:                  -0.454
REMARK UNBOUND:                -0.454
REMARK  Name = 
REMARK  7 active torsions:
REMARK  status: ('A' for Active; 'I' for Inactive)
REMARK    1  A    between atoms: C_1  and  O_2
REMARK    2  A    between atoms: O_2  and  C_3
REMARK    3  A    between atoms: C_5  and  C_6
REMARK    4  A    between atoms: C_7  and  C_8
REMARK    5  A    between atoms: C_11  and  O_12
REMARK    6  A    between atoms: C_16  and  O_17
REMARK    7  A    between atoms: O_17  and  C_18
REMARK                            x       y       z     vdW  Elec       q    Type
REMARK                         _______ _______ _______ _____ _____    ______ ____
ROOT
ATOM      1  C   UNL     1      33.507  28.615  68.916  0.00  0.00    +0.000 A 
ATOM      2  C   UNL     1      33.240  27.265  68.747  0.00  0.00    +0.000 A 
ATOM      3  C   UNL     1      33.730  26.449  69.794  0.00  0.00    +0.000 A 
ATOM      4  C   UNL     1      34.653  26.819  70.663  0.00  0.00    +0.000 A 
ATOM      5  C   UNL     1      34.919  28.158  70.733  0.00  0.00    +0.000 A 
ATOM      6  C   UNL     1      34.375  29.036  69.828  0.00  0.00    +0.000 A 
ENDROOT
BRANCH   1   8
ATOM      7  C   UNL     1      32.421  28.992  66.742  0.00  0.00    +0.000 C 
ATOM      8  O   UNL     1      32.913  29.497  67.975  0.00  0.00    +0.000 OA
ENDBRANCH   1   8
BRANCH   3   9
ATOM      9  C   UNL     1      33.155  25.049  69.927  0.00  0.00    +0.000 C 
ATOM     10  C   UNL     1      33.778  23.997  69.329  0.00  0.00    +0.000 C 
BRANCH  10  11
ATOM     11  C   UNL     1      33.202  22.597  69.461  0.00  0.00    +0.000 A 
ATOM     12  C   UNL     1      33.126  21.734  68.380  0.00  0.00    +0.000 A 
ATOM     13  C   UNL     1      32.351  20.576  68.625  0.00  0.00    +0.000 A 
ATOM     14  C   UNL     1      32.022  20.134  69.825  0.00  0.00    +0.000 A 
ATOM     15  C   UNL     1      32.185  21.012  70.861  0.00  0.00    +0.000 A 
ATOM     16  C   UNL     1      32.815  22.218  70.674  0.00  0.00    +0.000 A 
BRANCH  14  17
ATOM     17  O   UNL     1      31.526  18.819  70.029  0.00  0.00    +0.000 OA
ATOM     18  H   UNL     1      30.540  18.659  70.075  0.00  0.00    +0.000 HD
ENDBRANCH  14  17
ENDBRANCH  10  11
ENDBRANCH   3   9
BRANCH   5  19
ATOM     19  O   UNL     1      35.771  28.650  71.758  0.00  0.00    +0.000 OA
ATOM     20  C   UNL     1      36.525  29.835  71.549  0.00  0.00    +0.000 C 
ENDBRANCH   5  19
TORSDOF 5
ENDMDL
