MODEL 1
REMARK VINA RESULT:    -7.228      0.000      0.000
REMARK INTER + INTRA:          -9.465
REMARK INTER:                  -9.297
REMARK INTRA:                  -0.168
REMARK UNBOUND:                -0.546
REMARK  Name = 
REMARK  6 active torsions:
REMARK  status: ('A' for Active; 'I' for Inactive)
REMARK    1  A    between atoms: C_1  and  O_2
REMARK    2  A    between atoms: O_2  and  C_3
REMARK    3  A    between atoms: C_6  and  C_7
REMARK    4  A    between atoms: C_8  and  C_9
REMARK    5  A    between atoms: C_11  and  O_12
REMARK    6  A    between atoms: C_14  and  O_15
REMARK                            x       y       z     vdW  Elec       q    Type
REMARK                         _______ _______ _______ _____ _____    ______ ____
ROOT
ATOM      1  C   UNL     1      32.899  25.416  69.312  0.00  0.00    +0.000 C 
ATOM      2  C   UNL     1      33.879  25.426  70.255  0.00  0.00    +0.000 C 
ENDROOT
BRANCH   1   6
ATOM      3  C   UNL     1      31.953  28.804  66.890  0.00  0.00    +0.000 A 
ATOM      4  C   UNL     1      31.357  28.690  68.134  0.00  0.00    +0.000 A 
ATOM      5  C   UNL     1      31.899  27.659  68.938  0.00  0.00    +0.000 A 
ATOM      6  C   UNL     1      32.632  26.660  68.480  0.00  0.00    +0.000 A 
ATOM      7  C   UNL     1      33.137  26.805  67.218  0.00  0.00    +0.000 A 
ATOM      8  C   UNL     1      32.755  27.855  66.420  0.00  0.00    +0.000 A 
BRANCH   3  10
ATOM      9  C   UNL     1      30.387  30.476  65.995  0.00  0.00    +0.000 C 
ATOM     10  O   UNL     1      31.703  29.952  66.091  0.00  0.00    +0.000 OA
ENDBRANCH   3  10
ENDBRANCH   1   6
BRANCH   2  11
ATOM     11  C   UNL     1      34.709  26.680  70.478  0.00  0.00    +0.000 A 
ATOM     12  C   UNL     1      35.988  26.765  69.957  0.00  0.00    +0.000 A 
ATOM     13  C   UNL     1      36.744  27.848  70.465  0.00  0.00    +0.000 A 
ATOM     14  C   UNL     1      36.228  28.897  71.082  0.00  0.00    +0.000 A 
ATOM     15  C   UNL     1      34.936  28.775  71.513  0.00  0.00    +0.000 A 
ATOM     16  C   UNL     1      34.176  27.683  71.166  0.00  0.00    +0.000 A 
BRANCH  13  17
ATOM     17  O   UNL     1      38.154  27.806  70.302  0.00  0.00    +0.000 OA
ATOM     18  H   UNL     1      38.547  27.562  69.416  0.00  0.00    +0.000 HD
ENDBRANCH  13  17
BRANCH  15  19
ATOM     19  O   UNL     1      34.372  29.790  72.330  0.00  0.00    +0.000 OA
ATOM     20  H   UNL     1      33.593  29.580  72.921  0.00  0.00    +0.000 HD
ENDBRANCH  15  19
ENDBRANCH   2  11
TORSDOF 5
ENDMDL
MODEL 2
REMARK VINA RESULT:    -7.102     14.909     16.880
REMARK INTER + INTRA:          -9.308
REMARK INTER:                  -8.734
REMARK INTRA:                  -0.574
REMARK UNBOUND:                -0.546
REMARK  Name = 
REMARK  6 active torsions:
REMARK  status: ('A' for Active; 'I' for Inactive)
REMARK    1  A    between atoms: C_1  and  O_2
REMARK    2  A    between atoms: O_2  and  C_3
REMARK    3  A    between atoms: C_6  and  C_7
REMARK    4  A    between atoms: C_8  and  C_9
REMARK    5  A    between atoms: C_11  and  O_12
REMARK    6  A    between atoms: C_14  and  O_15
REMARK                            x       y       z     vdW  Elec       q    Type
REMARK                         _______ _______ _______ _____ _____    ______ ____
ROOT
ATOM      1  C   UNL     1      44.965  16.086  70.914  0.00  0.00    +0.000 C 
ATOM      2  C   UNL     1      44.762  16.041  69.570  0.00  0.00    +0.000 C 
ENDROOT
BRANCH   1   6
ATOM      3  C   UNL     1      47.671  19.062  72.353  0.00  0.00    +0.000 A 
ATOM      4  C   UNL     1      46.334  19.394  72.207  0.00  0.00    +0.000 A 
ATOM      5  C   UNL     1      45.494  18.287  71.938  0.00  0.00    +0.000 A 
ATOM      6  C   UNL     1      45.919  17.114  71.504  0.00  0.00    +0.000 A 
ATOM      7  C   UNL     1      47.260  16.874  71.614  0.00  0.00    +0.000 A 
ATOM      8  C   UNL     1      48.127  17.867  71.995  0.00  0.00    +0.000 A 
BRANCH   3  10
ATOM      9  C   UNL     1      48.162  21.356  73.094  0.00  0.00    +0.000 C 
ATOM     10  O   UNL     1      48.580  20.014  72.887  0.00  0.00    +0.000 OA
ENDBRANCH   3  10
ENDBRANCH   1   6
BRANCH   2  11
ATOM     11  C   UNL     1      45.487  17.016  68.657  0.00  0.00    +0.000 A 
ATOM     12  C   UNL     1      44.983  18.291  68.465  0.00  0.00    +0.000 A 
ATOM     13  C   UNL     1      45.584  18.991  67.393  0.00  0.00    +0.000 A 
ATOM     14  C   UNL     1      46.740  18.665  66.841  0.00  0.00    +0.000 A 
ATOM     15  C   UNL     1      47.219  17.416  67.123  0.00  0.00    +0.000 A 
ATOM     16  C   UNL     1      46.609  16.622  68.065  0.00  0.00    +0.000 A 
BRANCH  13  17
ATOM     17  O   UNL     1      44.899  20.121  66.873  0.00  0.00    +0.000 OA
ATOM     18  H   UNL     1      45.241  20.578  66.053  0.00  0.00    +0.000 HD
ENDBRANCH  13  17
BRANCH  15  19
ATOM     19  O   UNL     1      48.363  16.933  66.435  0.00  0.00    +0.000 OA
ATOM     20  H   UNL     1      49.272  17.045  66.837  0.00  0.00    +0.000 HD
ENDBRANCH  15  19
ENDBRANCH   2  11
TORSDOF 5
ENDMDL
MODEL 3
REMARK VINA RESULT:    -6.996     14.878     16.796
REMARK INTER + INTRA:          -9.178
REMARK INTER:                  -8.632
REMARK INTRA:                  -0.546
REMARK UNBOUND:                -0.546
REMARK  Name = 
REMARK  6 active torsions:
REMARK  status: ('A' for Active; 'I' for Inactive)
REMARK    1  A    between atoms: C_1  and  O_2
REMARK    2  A    between atoms: O_2  and  C_3
REMARK    3  A    between atoms: C_6  and  C_7
REMARK    4  A    between atoms: C_8  and  C_9
REMARK    5  A    between atoms: C_11  and  O_12
REMARK    6  A    between atoms: C_14  and  O_15
REMARK                            x       y       z     vdW  Elec       q    Type
REMARK                         _______ _______ _______ _____ _____    ______ ____
ROOT
ATOM      1  C   UNL     1      44.738  16.151  70.946  0.00  0.00    +0.000 C 
ATOM      2  C   UNL     1      44.436  15.988  69.630  0.00  0.00    +0.000 C 
ENDROOT
BRANCH   1   6
ATOM      3  C   UNL     1      47.711  18.881  72.343  0.00  0.00    +0.000 A 
ATOM      4  C   UNL     1      48.093  17.590  72.020  0.00  0.00    +0.000 A 
ATOM      5  C   UNL     1      47.088  16.840  71.365  0.00  0.00    +0.000 A 
ATOM      6  C   UNL     1      45.803  17.152  71.364  0.00  0.00    +0.000 A 
ATOM      7  C   UNL     1      45.485  18.421  71.758  0.00  0.00    +0.000 A 
ATOM      8  C   UNL     1      46.438  19.257  72.286  0.00  0.00    +0.000 A 
BRANCH   3  10
ATOM      9  C   UNL     1      48.331  21.188  72.929  0.00  0.00    +0.000 C 
ATOM     10  O   UNL     1      48.690  19.825  72.752  0.00  0.00    +0.000 OA
ENDBRANCH   3  10
ENDBRANCH   1   6
BRANCH   2  11
ATOM     11  C   UNL     1      45.164  16.807  68.575  0.00  0.00    +0.000 A 
ATOM     12  C   UNL     1      46.270  16.280  67.932  0.00  0.00    +0.000 A 
ATOM     13  C   UNL     1      47.011  17.231  67.192  0.00  0.00    +0.000 A 
ATOM     14  C   UNL     1      46.551  18.413  66.820  0.00  0.00    +0.000 A 
ATOM     15  C   UNL     1      45.416  18.848  67.445  0.00  0.00    +0.000 A 
ATOM     16  C   UNL     1      44.709  18.020  68.284  0.00  0.00    +0.000 A 
BRANCH  13  17
ATOM     17  O   UNL     1      48.340  16.894  66.823  0.00  0.00    +0.000 OA
ATOM     18  H   UNL     1      48.963  17.603  66.496  0.00  0.00    +0.000 HD
ENDBRANCH  13  17
BRANCH  15  19
ATOM     19  O   UNL     1      44.960  20.175  67.223  0.00  0.00    +0.000 OA
ATOM     20  H   UNL     1      45.515  20.812  66.690  0.00  0.00    +0.000 HD
ENDBRANCH  15  19
ENDBRANCH   2  11
TORSDOF 5
ENDMDL
MODEL 4
REMARK VINA RESULT:    -6.849      2.903      5.363
REMARK INTER + INTRA:          -8.996
REMARK INTER:                  -8.450
REMARK INTRA:                  -0.546
REMARK UNBOUND:                -0.546
REMARK  Name = 
REMARK  6 active torsions:
REMARK  status: ('A' for Active; 'I' for Inactive)
REMARK    1  A    between atoms: C_1  and  O_2
REMARK    2  A    between atoms: O_2  and  C_3
REMARK    3  A    between atoms: C_6  and  C_7
REMARK    4  A    between atoms: C_8  and  C_9
REMARK    5  A    between atoms: C_11  and  O_12
REMARK    6  A    between atoms: C_14  and  O_15
REMARK                            x       y       z     vdW  Elec       q    Type
REMARK                         _______ _______ _______ _____ _____    ______ ____
ROOT
ATOM      1  C   UNL     1      32.409  25.900  67.531  0.00  0.00    +0.000 C 
ATOM      2  C   UNL     1      31.503  24.990  67.977  0.00  0.00    +0.000 C 
ENDROOT
BRANCH   1   6
ATOM      3  C   UNL     1      34.946  27.695  70.461  0.00  0.00    +0.000 A 
ATOM      4  C   UNL     1      35.145  26.364  70.135  0.00  0.00    +0.000 A 
ATOM      5  C   UNL     1      34.407  25.932  69.008  0.00  0.00    +0.000 A 
ATOM      6  C   UNL     1      33.361  26.569  68.511  0.00  0.00    +0.000 A 
ATOM      7  C   UNL     1      33.180  27.859  68.925  0.00  0.00    +0.000 A 
ATOM      8  C   UNL     1      33.949  28.393  69.930  0.00  0.00    +0.000 A 
BRANCH   3  10
ATOM      9  C   UNL     1      35.640  29.708  71.693  0.00  0.00    +0.000 C 
ATOM     10  O   UNL     1      35.814  28.332  71.388  0.00  0.00    +0.000 OA
ENDBRANCH   3  10
ENDBRANCH   1   6
BRANCH   2  11
ATOM     11  C   UNL     1      31.439  24.640  69.455  0.00  0.00    +0.000 A 
ATOM     12  C   UNL     1      30.899  25.541  70.356  0.00  0.00    +0.000 A 
ATOM     13  C   UNL     1      31.152  25.218  71.711  0.00  0.00    +0.000 A 
ATOM     14  C   UNL     1      31.532  24.027  72.138  0.00  0.00    +0.000 A 
ATOM     15  C   UNL     1      31.993  23.159  71.189  0.00  0.00    +0.000 A 
ATOM     16  C   UNL     1      31.899  23.459  69.851  0.00  0.00    +0.000 A 
BRANCH  13  17
ATOM     17  O   UNL     1      30.987  26.246  72.677  0.00  0.00    +0.000 OA
ATOM     18  H   UNL     1      30.533  26.047  73.545  0.00  0.00    +0.000 HD
ENDBRANCH  13  17
BRANCH  15  19
ATOM     19  O   UNL     1      32.577  21.928  71.590  0.00  0.00    +0.000 OA
ATOM     20  H   UNL     1      31.993  21.149  71.818  0.00  0.00    +0.000 HD
ENDBRANCH  15  19
ENDBRANCH   2  11
TORSDOF 5
ENDMDL
MODEL 5
REMARK VINA RESULT:    -6.829      5.363      7.703
REMARK INTER + INTRA:          -8.972
REMARK INTER:                  -8.388
REMARK INTRA:                  -0.583
REMARK UNBOUND:                -0.546
REMARK  Name = 
REMARK  6 active torsions:
REMARK  status: ('A' for Active; 'I' for Inactive)
REMARK    1  A    between atoms: C_1  and  O_2
REMARK    2  A    between atoms: O_2  and  C_3
REMARK    3  A    between atoms: C_6  and  C_7
REMARK    4  A    between atoms: C_8  and  C_9
REMARK    5  A    between atoms: C_11  and  O_12
REMARK    6  A    between atoms: C_14  and  O_15
REMARK                            x       y       z     vdW  Elec       q    Type
REMARK                         _______ _______ _______ _____ _____    ______ ____
ROOT
ATOM      1  C   UNL     1      29.640  23.163  70.524  0.00  0.00    +0.000 C 
ATOM      2  C   UNL     1      30.217  24.267  69.978  0.00  0.00    +0.000 C 
ENDROOT
BRANCH   1   6
ATOM      3  C   UNL     1      31.462  19.400  69.650  0.00  0.00    +0.000 A 
ATOM      4  C   UNL     1      32.103  20.261  70.524  0.00  0.00    +0.000 A 
ATOM      5  C   UNL     1      31.318  21.372  70.914  0.00  0.00    +0.000 A 
ATOM      6  C   UNL     1      30.240  21.788  70.273  0.00  0.00    +0.000 A 
ATOM      7  C   UNL     1      29.694  20.917  69.373  0.00  0.00    +0.000 A 
ATOM      8  C   UNL     1      30.336  19.750  69.039  0.00  0.00    +0.000 A 
BRANCH   3  10
ATOM      9  C   UNL     1      31.633  17.005  70.184  0.00  0.00    +0.000 C 
ATOM     10  O   UNL     1      32.016  18.118  69.390  0.00  0.00    +0.000 OA
ENDBRANCH   3  10
ENDBRANCH   1   6
BRANCH   2  11
ATOM     11  C   UNL     1      31.462  24.127  69.116  0.00  0.00    +0.000 A 
ATOM     12  C   UNL     1      31.353  23.685  67.809  0.00  0.00    +0.000 A 
ATOM     13  C   UNL     1      32.589  23.336  67.217  0.00  0.00    +0.000 A 
ATOM     14  C   UNL     1      33.771  23.711  67.674  0.00  0.00    +0.000 A 
ATOM     15  C   UNL     1      33.802  24.203  68.949  0.00  0.00    +0.000 A 
ATOM     16  C   UNL     1      32.639  24.448  69.640  0.00  0.00    +0.000 A 
BRANCH  13  17
ATOM     17  O   UNL     1      32.559  22.526  66.051  0.00  0.00    +0.000 OA
ATOM     18  H   UNL     1      32.238  21.581  66.107  0.00  0.00    +0.000 HD
ENDBRANCH  13  17
BRANCH  15  19
ATOM     19  O   UNL     1      35.053  24.466  69.567  0.00  0.00    +0.000 OA
ATOM     20  H   UNL     1      35.749  23.749  69.612  0.00  0.00    +0.000 HD
ENDBRANCH  15  19
ENDBRANCH   2  11
TORSDOF 5
ENDMDL
