MODEL 1
REMARK VINA RESULT:    -7.432      0.000      0.000
REMARK INTER + INTRA:         -10.201
REMARK INTER:                  -9.779
REMARK INTRA:                  -0.422
REMARK UNBOUND:                -0.813
REMARK  Name = 
REMARK  6 active torsions:
REMARK  status: ('A' for Active; 'I' for Inactive)
REMARK    1  A    between atoms: C_1  and  O_2
REMARK    2  A    between atoms: O_2  and  C_3
REMARK    3  A    between atoms: C_6  and  C_7
REMARK    4  A    between atoms: C_7  and  C_9
REMARK    5  A    between atoms: C_10  and  C_11
REMARK    6  A    between atoms: C_17  and  O_18
REMARK                            x       y       z     vdW  Elec       q    Type
REMARK                         _______ _______ _______ _____ _____    ______ ____
ROOT
ATOM      1  C   UNL     1      31.308  16.742  68.970  0.00  0.00    +0.000 A 
ATOM      2  C   UNL     1      31.327  18.007  68.433  0.00  0.00    +0.000 A 
ATOM      3  C   UNL     1      31.588  19.098  69.240  0.00  0.00    +0.000 A 
ATOM      4  C   UNL     1      31.848  18.923  70.579  0.00  0.00    +0.000 A 
ATOM      5  C   UNL     1      31.862  17.657  71.121  0.00  0.00    +0.000 A 
ATOM      6  C   UNL     1      31.602  16.531  70.334  0.00  0.00    +0.000 A 
ENDROOT
BRANCH   1   8
ATOM      7  C   UNL     1      31.011  14.383  68.630  0.00  0.00    +0.000 C 
ATOM      8  O   UNL     1      31.020  15.715  68.138  0.00  0.00    +0.000 OA
ENDBRANCH   1   8
BRANCH   4   9
ATOM      9  C   UNL     1      32.122  20.130  71.461  0.00  0.00    +0.000 C 
ATOM     10  O   UNL     1      32.526  19.967  72.654  0.00  0.00    +0.000 OA
BRANCH   9  11
ATOM     11  C   UNL     1      31.915  21.533  70.914  0.00  0.00    +0.000 C 
ATOM     12  C   UNL     1      30.981  22.350  71.473  0.00  0.00    +0.000 C 
BRANCH  12  13
ATOM     13  C   UNL     1      30.774  23.753  70.926  0.00  0.00    +0.000 A 
ATOM     14  C   UNL     1      30.230  23.868  69.657  0.00  0.00    +0.000 A 
ATOM     15  C   UNL     1      30.323  25.170  69.109  0.00  0.00    +0.000 A 
ATOM     16  C   UNL     1      30.554  26.264  69.812  0.00  0.00    +0.000 A 
ATOM     17  C   UNL     1      31.026  26.082  71.083  0.00  0.00    +0.000 A 
ATOM     18  C   UNL     1      31.089  24.827  71.641  0.00  0.00    +0.000 A 
ENDBRANCH  12  13
ENDBRANCH   9  11
ENDBRANCH   4   9
BRANCH   5  19
ATOM     19  O   UNL     1      32.144  17.493  72.503  0.00  0.00    +0.000 OA
ATOM     20  H   UNL     1      32.784  16.785  72.802  0.00  0.00    +0.000 HD
ENDBRANCH   5  19
TORSDOF 5
ENDMDL
MODEL 2
REMARK VINA RESULT:    -7.279      4.514      6.941
REMARK INTER + INTRA:         -10.008
REMARK INTER:                  -9.198
REMARK INTRA:                  -0.810
REMARK UNBOUND:                -0.813
REMARK  Name = 
REMARK  6 active torsions:
REMARK  status: ('A' for Active; 'I' for Inactive)
REMARK    1  A    between atoms: C_1  and  O_2
REMARK    2  A    between atoms: O_2  and  C_3
REMARK    3  A    between atoms: C_6  and  C_7
REMARK    4  A    between atoms: C_7  and  C_9
REMARK    5  A    between atoms: C_10  and  C_11
REMARK    6  A    between atoms: C_17  and  O_18
REMARK                            x       y       z     vdW  Elec       q    Type
REMARK                         _______ _______ _______ _____ _____    ______ ____
ROOT
ATOM      1  C   UNL     1      30.171  23.524  68.935  0.00  0.00    +0.000 A 
ATOM      2  C   UNL     1      30.289  24.715  68.258  0.00  0.00    +0.000 A 
ATOM      3  C   UNL     1      30.601  25.873  68.944  0.00  0.00    +0.000 A 
ATOM      4  C   UNL     1      30.811  25.839  70.302  0.00  0.00    +0.000 A 
ATOM      5  C   UNL     1      30.724  24.647  70.986  0.00  0.00    +0.000 A 
ATOM      6  C   UNL     1      30.411  23.455  70.323  0.00  0.00    +0.000 A 
ENDROOT
BRANCH   1   8
ATOM      7  C   UNL     1      30.428  22.207  66.943  0.00  0.00    +0.000 C 
ATOM      8  O   UNL     1      29.838  22.428  68.216  0.00  0.00    +0.000 OA
ENDBRANCH   1   8
BRANCH   4   9
ATOM      9  C   UNL     1      31.141  27.121  71.049  0.00  0.00    +0.000 C 
ATOM     10  O   UNL     1      30.380  27.527  71.982  0.00  0.00    +0.000 OA
BRANCH   9  11
ATOM     11  C   UNL     1      32.384  27.915  70.682  0.00  0.00    +0.000 C 
ATOM     12  C   UNL     1      33.618  27.373  70.867  0.00  0.00    +0.000 C 
BRANCH  12  13
ATOM     13  C   UNL     1      34.860  28.168  70.499  0.00  0.00    +0.000 A 
ATOM     14  C   UNL     1      36.070  27.493  70.495  0.00  0.00    +0.000 A 
ATOM     15  C   UNL     1      37.200  28.342  70.417  0.00  0.00    +0.000 A 
ATOM     16  C   UNL     1      37.164  29.602  70.024  0.00  0.00    +0.000 A 
ATOM     17  C   UNL     1      35.931  30.193  69.985  0.00  0.00    +0.000 A 
ATOM     18  C   UNL     1      34.788  29.455  70.181  0.00  0.00    +0.000 A 
ENDBRANCH  12  13
ENDBRANCH   9  11
ENDBRANCH   4   9
BRANCH   5  19
ATOM     19  O   UNL     1      30.956  24.627  72.387  0.00  0.00    +0.000 OA
ATOM     20  H   UNL     1      30.567  23.896  72.947  0.00  0.00    +0.000 HD
ENDBRANCH   5  19
TORSDOF 5
ENDMDL
MODEL 3
REMARK VINA RESULT:    -7.278      3.388      7.717
REMARK INTER + INTRA:         -10.005
REMARK INTER:                  -9.188
REMARK INTRA:                  -0.817
REMARK UNBOUND:                -0.813
REMARK  Name = 
REMARK  6 active torsions:
REMARK  status: ('A' for Active; 'I' for Inactive)
REMARK    1  A    between atoms: C_1  and  O_2
REMARK    2  A    between atoms: O_2  and  C_3
REMARK    3  A    between atoms: C_6  and  C_7
REMARK    4  A    between atoms: C_7  and  C_9
REMARK    5  A    between atoms: C_10  and  C_11
REMARK    6  A    between atoms: C_17  and  O_18
REMARK                            x       y       z     vdW  Elec       q    Type
REMARK                         _______ _______ _______ _____ _____    ______ ____
ROOT
ATOM      1  C   UNL     1      31.758  25.503  68.666  0.00  0.00    +0.000 A 
ATOM      2  C   UNL     1      30.547  24.859  68.758  0.00  0.00    +0.000 A 
ATOM      3  C   UNL     1      30.371  23.625  68.162  0.00  0.00    +0.000 A 
ATOM      4  C   UNL     1      31.409  23.027  67.489  0.00  0.00    +0.000 A 
ATOM      5  C   UNL     1      32.636  23.648  67.415  0.00  0.00    +0.000 A 
ATOM      6  C   UNL     1      32.849  24.898  68.007  0.00  0.00    +0.000 A 
ENDROOT
BRANCH   1   8
ATOM      7  C   UNL     1      32.989  27.542  68.971  0.00  0.00    +0.000 C 
ATOM      8  O   UNL     1      31.864  26.720  69.245  0.00  0.00    +0.000 OA
ENDBRANCH   1   8
BRANCH   4   9
ATOM      9  C   UNL     1      31.202  21.674  66.826  0.00  0.00    +0.000 C 
ATOM     10  O   UNL     1      31.367  21.549  65.573  0.00  0.00    +0.000 OA
BRANCH   9  11
ATOM     11  C   UNL     1      30.799  20.472  67.665  0.00  0.00    +0.000 C 
ATOM     12  C   UNL     1      31.587  20.068  68.699  0.00  0.00    +0.000 C 
BRANCH  12  13
ATOM     13  C   UNL     1      31.183  18.866  69.536  0.00  0.00    +0.000 A 
ATOM     14  C   UNL     1      31.957  18.577  70.648  0.00  0.00    +0.000 A 
ATOM     15  C   UNL     1      31.696  17.305  71.213  0.00  0.00    +0.000 A 
ATOM     16  C   UNL     1      30.610  16.591  70.980  0.00  0.00    +0.000 A 
ATOM     17  C   UNL     1      29.851  16.969  69.907  0.00  0.00    +0.000 A 
ATOM     18  C   UNL     1      30.123  18.130  69.223  0.00  0.00    +0.000 A 
ENDBRANCH  12  13
ENDBRANCH   9  11
ENDBRANCH   4   9
BRANCH   5  19
ATOM     19  O   UNL     1      33.702  23.011  66.726  0.00  0.00    +0.000 OA
ATOM     20  H   UNL     1      34.621  23.402  66.756  0.00  0.00    +0.000 HD
ENDBRANCH   5  19
TORSDOF 5
ENDMDL
MODEL 4
REMARK VINA RESULT:    -7.155      2.391      3.550
REMARK INTER + INTRA:          -9.851
REMARK INTER:                  -9.038
REMARK INTRA:                  -0.813
REMARK UNBOUND:                -0.813
REMARK  Name = 
REMARK  6 active torsions:
REMARK  status: ('A' for Active; 'I' for Inactive)
REMARK    1  A    between atoms: C_1  and  O_2
REMARK    2  A    between atoms: O_2  and  C_3
REMARK    3  A    between atoms: C_6  and  C_7
REMARK    4  A    between atoms: C_7  and  C_9
REMARK    5  A    between atoms: C_10  and  C_11
REMARK    6  A    between atoms: C_17  and  O_18
REMARK                            x       y       z     vdW  Elec       q    Type
REMARK                         _______ _______ _______ _____ _____    ______ ____
ROOT
ATOM      1  C   UNL     1      31.595  19.083  69.378  0.00  0.00    +0.000 A 
ATOM      2  C   UNL     1      30.572  19.554  68.590  0.00  0.00    +0.000 A 
ATOM      3  C   UNL     1      30.000  20.783  68.858  0.00  0.00    +0.000 A 
ATOM      4  C   UNL     1      30.461  21.548  69.902  0.00  0.00    +0.000 A 
ATOM      5  C   UNL     1      31.506  21.100  70.680  0.00  0.00    +0.000 A 
ATOM      6  C   UNL     1      32.108  19.861  70.437  0.00  0.00    +0.000 A 
ENDROOT
BRANCH   1   8
ATOM      7  C   UNL     1      31.739  16.738  69.876  0.00  0.00    +0.000 C 
ATOM      8  O   UNL     1      32.097  17.862  69.085  0.00  0.00    +0.000 OA
ENDBRANCH   1   8
BRANCH   4   9
ATOM      9  C   UNL     1      29.818  22.894  70.197  0.00  0.00    +0.000 C 
ATOM     10  O   UNL     1      29.068  23.031  71.213  0.00  0.00    +0.000 OA
BRANCH   9  11
ATOM     11  C   UNL     1      30.075  24.076  69.276  0.00  0.00    +0.000 C 
ATOM     12  C   UNL     1      31.351  24.444  68.980  0.00  0.00    +0.000 C 
BRANCH  12  13
ATOM     13  C   UNL     1      31.607  25.625  68.059  0.00  0.00    +0.000 A 
ATOM     14  C   UNL     1      30.601  26.571  67.943  0.00  0.00    +0.000 A 
ATOM     15  C   UNL     1      30.790  27.481  66.875  0.00  0.00    +0.000 A 
ATOM     16  C   UNL     1      31.941  27.686  66.261  0.00  0.00    +0.000 A 
ATOM     17  C   UNL     1      32.918  26.751  66.471  0.00  0.00    +0.000 A 
ATOM     18  C   UNL     1      32.754  25.755  67.403  0.00  0.00    +0.000 A 
ENDBRANCH  12  13
ENDBRANCH   9  11
ENDBRANCH   4   9
BRANCH   5  19
ATOM     19  O   UNL     1      31.979  21.909  71.748  0.00  0.00    +0.000 OA
ATOM     20  H   UNL     1      32.064  22.897  71.627  0.00  0.00    +0.000 HD
ENDBRANCH   5  19
TORSDOF 5
ENDMDL
MODEL 5
REMARK VINA RESULT:    -7.140      2.077      3.084
REMARK INTER + INTRA:          -9.831
REMARK INTER:                  -9.101
REMARK INTRA:                  -0.730
REMARK UNBOUND:                -0.813
REMARK  Name = 
REMARK  6 active torsions:
REMARK  status: ('A' for Active; 'I' for Inactive)
REMARK    1  A    between atoms: C_1  and  O_2
REMARK    2  A    between atoms: O_2  and  C_3
REMARK    3  A    between atoms: C_6  and  C_7
REMARK    4  A    between atoms: C_7  and  C_9
REMARK    5  A    between atoms: C_10  and  C_11
REMARK    6  A    between atoms: C_17  and  O_18
REMARK                            x       y       z     vdW  Elec       q    Type
REMARK                         _______ _______ _______ _____ _____    ______ ____
ROOT
ATOM      1  C   UNL     1      31.320  18.986  69.408  0.00  0.00    +0.000 A 
ATOM      2  C   UNL     1      30.579  20.066  68.991  0.00  0.00    +0.000 A 
ATOM      3  C   UNL     1      30.585  21.235  69.726  0.00  0.00    +0.000 A 
ATOM      4  C   UNL     1      31.345  21.332  70.867  0.00  0.00    +0.000 A 
ATOM      5  C   UNL     1      32.115  20.267  71.279  0.00  0.00    +0.000 A 
ATOM      6  C   UNL     1      32.132  19.068  70.558  0.00  0.00    +0.000 A 
ENDROOT
BRANCH   1   8
ATOM      7  C   UNL     1      31.696  16.622  69.204  0.00  0.00    +0.000 C 
ATOM      8  O   UNL     1      31.254  17.859  68.663  0.00  0.00    +0.000 OA
ENDBRANCH   1   8
BRANCH   4   9
ATOM      9  C   UNL     1      31.336  22.619  71.676  0.00  0.00    +0.000 C 
ATOM     10  O   UNL     1      31.053  22.590  72.915  0.00  0.00    +0.000 OA
BRANCH   9  11
ATOM     11  C   UNL     1      31.667  23.941  71.003  0.00  0.00    +0.000 C 
ATOM     12  C   UNL     1      32.936  24.431  71.052  0.00  0.00    +0.000 C 
BRANCH  12  13
ATOM     13  C   UNL     1      33.267  25.753  70.379  0.00  0.00    +0.000 A 
ATOM     14  C   UNL     1      33.786  26.760  71.174  0.00  0.00    +0.000 A 
ATOM     15  C   UNL     1      33.809  28.030  70.549  0.00  0.00    +0.000 A 
ATOM     16  C   UNL     1      33.706  28.227  69.248  0.00  0.00    +0.000 A 
ATOM     17  C   UNL     1      33.250  27.170  68.507  0.00  0.00    +0.000 A 
ATOM     18  C   UNL     1      33.078  25.931  69.076  0.00  0.00    +0.000 A 
ENDBRANCH  12  13
ENDBRANCH   9  11
ENDBRANCH   4   9
BRANCH   5  19
ATOM     19  O   UNL     1      32.903  20.387  72.454  0.00  0.00    +0.000 OA
ATOM     20  H   UNL     1      33.609  21.093  72.512  0.00  0.00    +0.000 HD
ENDBRANCH   5  19
TORSDOF 5
ENDMDL
