MODEL 1
REMARK VINA RESULT:    -6.904      0.000      0.000
REMARK INTER + INTRA:         -13.874
REMARK INTER:                 -10.820
REMARK INTRA:                  -3.054
REMARK UNBOUND:                -3.338
REMARK  Name = 
REMARK  10 active torsions:
REMARK  status: ('A' for Active; 'I' for Inactive)
REMARK    1  A    between atoms: C_2  and  C_3
REMARK    2  A    between atoms: C_2  and  C_14
REMARK    3  A    between atoms: C_3  and  C_4
REMARK    4  A    between atoms: C_4  and  C_5
REMARK    5  A    between atoms: C_5  and  C_6
REMARK    6  A    between atoms: C_6  and  C_7
REMARK    7  A    between atoms: C_10  and  O_11
REMARK    8  A    between atoms: C_14  and  C_15
REMARK    9  A    between atoms: C_15  and  C_16
REMARK   10  A    between atoms: C_19  and  O_20
REMARK                            x       y       z     vdW  Elec       q    Type
REMARK                         _______ _______ _______ _____ _____    ______ ____
ROOT
ATOM      1  O   UNL     1      31.373  24.699  73.522  0.00  0.00    +0.000 OA
ATOM      2  C   UNL     1      31.779  24.721  72.318  0.00  0.00    +0.000 C 
ENDROOT
BRANCH   2   3
ATOM      3  C   UNL     1      32.076  26.048  71.639  0.00  0.00    +0.000 C 
BRANCH   3   4
ATOM      4  C   UNL     1      30.897  26.447  70.767  0.00  0.00    +0.000 C 
BRANCH   4   5
ATOM      5  C   UNL     1      31.308  26.393  69.304  0.00  0.00    +0.000 C 
BRANCH   5   6
ATOM      6  C   UNL     1      30.501  25.320  68.591  0.00  0.00    +0.000 C 
BRANCH   6   7
ATOM      7  C   UNL     1      31.444  24.361  67.884  0.00  0.00    +0.000 A 
ATOM      8  C   UNL     1      32.784  24.504  68.167  0.00  0.00    +0.000 A 
ATOM      9  C   UNL     1      33.726  23.592  67.679  0.00  0.00    +0.000 A 
ATOM     10  C   UNL     1      33.249  22.514  66.904  0.00  0.00    +0.000 A 
ATOM     11  C   UNL     1      31.913  22.399  66.604  0.00  0.00    +0.000 A 
ATOM     12  C   UNL     1      31.011  23.318  67.102  0.00  0.00    +0.000 A 
BRANCH  10  13
ATOM     13  O   UNL     1      34.083  21.570  66.409  0.00  0.00    +0.000 OA
ATOM     14  H   UNL     1      33.937  21.209  65.488  0.00  0.00    +0.000 HD
ENDBRANCH  10  13
ENDBRANCH   6   7
ENDBRANCH   5   6
ENDBRANCH   4   5
ENDBRANCH   3   4
ENDBRANCH   2   3
BRANCH   2  15
ATOM     15  C   UNL     1      31.967  23.419  71.556  0.00  0.00    +0.000 C 
BRANCH  15  16
ATOM     16  C   UNL     1      30.615  22.762  71.333  0.00  0.00    +0.000 C 
BRANCH  16  17
ATOM     17  C   UNL     1      30.768  21.605  70.360  0.00  0.00    +0.000 A 
ATOM     18  C   UNL     1      31.999  21.012  70.186  0.00  0.00    +0.000 A 
ATOM     19  C   UNL     1      32.165  19.939  69.304  0.00  0.00    +0.000 A 
ATOM     20  C   UNL     1      31.025  19.477  68.616  0.00  0.00    +0.000 A 
ATOM     21  C   UNL     1      29.807  20.095  68.776  0.00  0.00    +0.000 A 
ATOM     22  C   UNL     1      29.679  21.153  69.654  0.00  0.00    +0.000 A 
BRANCH  20  23
ATOM     23  O   UNL     1      31.085  18.429  67.763  0.00  0.00    +0.000 OA
ATOM     24  H   UNL     1      30.583  18.458  66.899  0.00  0.00    +0.000 HD
ENDBRANCH  20  23
ENDBRANCH  16  17
ENDBRANCH  15  16
ENDBRANCH   2  15
TORSDOF 10
ENDMDL
MODEL 2
REMARK VINA RESULT:    -6.781      2.000      6.490
REMARK INTER + INTRA:         -13.686
REMARK INTER:                 -10.800
REMARK INTRA:                  -2.887
REMARK UNBOUND:                -3.338
REMARK  Name = 
REMARK  10 active torsions:
REMARK  status: ('A' for Active; 'I' for Inactive)
REMARK    1  A    between atoms: C_2  and  C_3
REMARK    2  A    between atoms: C_2  and  C_14
REMARK    3  A    between atoms: C_3  and  C_4
REMARK    4  A    between atoms: C_4  and  C_5
REMARK    5  A    between atoms: C_5  and  C_6
REMARK    6  A    between atoms: C_6  and  C_7
REMARK    7  A    between atoms: C_10  and  O_11
REMARK    8  A    between atoms: C_14  and  C_15
REMARK    9  A    between atoms: C_15  and  C_16
REMARK   10  A    between atoms: C_19  and  O_20
REMARK                            x       y       z     vdW  Elec       q    Type
REMARK                         _______ _______ _______ _____ _____    ______ ____
ROOT
ATOM      1  O   UNL     1      34.179  22.491  66.371  0.00  0.00    +0.000 OA
ATOM      2  C   UNL     1      33.465  22.769  67.385  0.00  0.00    +0.000 C 
ENDROOT
BRANCH   2   3
ATOM      3  C   UNL     1      32.178  22.003  67.641  0.00  0.00    +0.000 C 
BRANCH   3   4
ATOM      4  C   UNL     1      30.998  22.801  67.111  0.00  0.00    +0.000 C 
BRANCH   4   5
ATOM      5  C   UNL     1      30.047  23.119  68.255  0.00  0.00    +0.000 C 
BRANCH   5   6
ATOM      6  C   UNL     1      30.132  24.599  68.586  0.00  0.00    +0.000 C 
BRANCH   6   7
ATOM      7  C   UNL     1      30.612  24.773  70.018  0.00  0.00    +0.000 A 
ATOM      8  C   UNL     1      31.074  23.639  70.648  0.00  0.00    +0.000 A 
ATOM      9  C   UNL     1      31.663  23.707  71.915  0.00  0.00    +0.000 A 
ATOM     10  C   UNL     1      31.780  24.979  72.513  0.00  0.00    +0.000 A 
ATOM     11  C   UNL     1      31.287  26.099  71.887  0.00  0.00    +0.000 A 
ATOM     12  C   UNL     1      30.711  25.995  70.636  0.00  0.00    +0.000 A 
BRANCH  10  13
ATOM     13  O   UNL     1      32.355  25.145  73.726  0.00  0.00    +0.000 OA
ATOM     14  H   UNL     1      32.284  24.423  74.415  0.00  0.00    +0.000 HD
ENDBRANCH  10  13
ENDBRANCH   6   7
ENDBRANCH   5   6
ENDBRANCH   4   5
ENDBRANCH   3   4
ENDBRANCH   2   3
BRANCH   2  15
ATOM     15  C   UNL     1      33.897  23.868  68.341  0.00  0.00    +0.000 C 
BRANCH  15  16
ATOM     16  C   UNL     1      33.679  25.223  67.689  0.00  0.00    +0.000 C 
BRANCH  16  17
ATOM     17  C   UNL     1      33.768  26.313  68.743  0.00  0.00    +0.000 A 
ATOM     18  C   UNL     1      33.182  27.539  68.515  0.00  0.00    +0.000 A 
ATOM     19  C   UNL     1      33.242  28.557  69.474  0.00  0.00    +0.000 A 
ATOM     20  C   UNL     1      33.905  28.274  70.685  0.00  0.00    +0.000 A 
ATOM     21  C   UNL     1      34.511  27.057  70.890  0.00  0.00    +0.000 A 
ATOM     22  C   UNL     1      34.434  26.075  69.922  0.00  0.00    +0.000 A 
BRANCH  20  23
ATOM     23  O   UNL     1      33.990  29.188  71.678  0.00  0.00    +0.000 OA
ATOM     24  H   UNL     1      34.803  29.765  71.759  0.00  0.00    +0.000 HD
ENDBRANCH  20  23
ENDBRANCH  16  17
ENDBRANCH  15  16
ENDBRANCH   2  15
TORSDOF 10
ENDMDL
MODEL 3
REMARK VINA RESULT:    -6.637      0.780      3.941
REMARK INTER + INTRA:         -13.466
REMARK INTER:                 -10.379
REMARK INTRA:                  -3.088
REMARK UNBOUND:                -3.338
REMARK  Name = 
REMARK  10 active torsions:
REMARK  status: ('A' for Active; 'I' for Inactive)
REMARK    1  A    between atoms: C_2  and  C_3
REMARK    2  A    between atoms: C_2  and  C_14
REMARK    3  A    between atoms: C_3  and  C_4
REMARK    4  A    between atoms: C_4  and  C_5
REMARK    5  A    between atoms: C_5  and  C_6
REMARK    6  A    between atoms: C_6  and  C_7
REMARK    7  A    between atoms: C_10  and  O_11
REMARK    8  A    between atoms: C_14  and  C_15
REMARK    9  A    between atoms: C_15  and  C_16
REMARK   10  A    between atoms: C_19  and  O_20
REMARK                            x       y       z     vdW  Elec       q    Type
REMARK                         _______ _______ _______ _____ _____    ______ ____
ROOT
ATOM      1  O   UNL     1      30.614  26.858  72.007  0.00  0.00    +0.000 OA
ATOM      2  C   UNL     1      31.591  26.242  71.477  0.00  0.00    +0.000 C 
ENDROOT
BRANCH   2   3
ATOM      3  C   UNL     1      32.431  25.289  72.312  0.00  0.00    +0.000 C 
BRANCH   3   4
ATOM      4  C   UNL     1      31.567  24.133  72.787  0.00  0.00    +0.000 C 
BRANCH   4   5
ATOM      5  C   UNL     1      31.774  22.936  71.873  0.00  0.00    +0.000 C 
BRANCH   5   6
ATOM      6  C   UNL     1      30.477  22.625  71.145  0.00  0.00    +0.000 C 
BRANCH   6   7
ATOM      7  C   UNL     1      30.676  21.414  70.247  0.00  0.00    +0.000 A 
ATOM      8  C   UNL     1      29.589  21.026  69.497  0.00  0.00    +0.000 A 
ATOM      9  C   UNL     1      29.699  20.012  68.539  0.00  0.00    +0.000 A 
ATOM     10  C   UNL     1      30.966  19.417  68.361  0.00  0.00    +0.000 A 
ATOM     11  C   UNL     1      32.035  19.793  69.138  0.00  0.00    +0.000 A 
ATOM     12  C   UNL     1      31.891  20.798  70.075  0.00  0.00    +0.000 A 
BRANCH  10  13
ATOM     13  O   UNL     1      31.172  18.445  67.444  0.00  0.00    +0.000 OA
ATOM     14  H   UNL     1      30.884  17.507  67.636  0.00  0.00    +0.000 HD
ENDBRANCH  10  13
ENDBRANCH   6   7
ENDBRANCH   5   6
ENDBRANCH   4   5
ENDBRANCH   3   4
ENDBRANCH   2   3
BRANCH   2  15
ATOM     15  C   UNL     1      31.920  26.457  70.010  0.00  0.00    +0.000 C 
BRANCH  15  16
ATOM     16  C   UNL     1      30.921  25.699  69.150  0.00  0.00    +0.000 C 
BRANCH  16  17
ATOM     17  C   UNL     1      31.639  24.591  68.397  0.00  0.00    +0.000 A 
ATOM     18  C   UNL     1      30.942  23.802  67.510  0.00  0.00    +0.000 A 
ATOM     19  C   UNL     1      31.581  22.781  66.796  0.00  0.00    +0.000 A 
ATOM     20  C   UNL     1      32.964  22.606  67.005  0.00  0.00    +0.000 A 
ATOM     21  C   UNL     1      33.643  23.382  67.915  0.00  0.00    +0.000 A 
ATOM     22  C   UNL     1      32.981  24.379  68.603  0.00  0.00    +0.000 A 
BRANCH  20  23
ATOM     23  O   UNL     1      33.669  21.662  66.341  0.00  0.00    +0.000 OA
ATOM     24  H   UNL     1      34.566  21.378  66.680  0.00  0.00    +0.000 HD
ENDBRANCH  20  23
ENDBRANCH  16  17
ENDBRANCH  15  16
ENDBRANCH   2  15
TORSDOF 10
ENDMDL
MODEL 4
REMARK VINA RESULT:    -6.564      1.865      5.314
REMARK INTER + INTRA:         -13.356
REMARK INTER:                 -10.018
REMARK INTRA:                  -3.338
REMARK UNBOUND:                -3.338
REMARK  Name = 
REMARK  10 active torsions:
REMARK  status: ('A' for Active; 'I' for Inactive)
REMARK    1  A    between atoms: C_2  and  C_3
REMARK    2  A    between atoms: C_2  and  C_14
REMARK    3  A    between atoms: C_3  and  C_4
REMARK    4  A    between atoms: C_4  and  C_5
REMARK    5  A    between atoms: C_5  and  C_6
REMARK    6  A    between atoms: C_6  and  C_7
REMARK    7  A    between atoms: C_10  and  O_11
REMARK    8  A    between atoms: C_14  and  C_15
REMARK    9  A    between atoms: C_15  and  C_16
REMARK   10  A    between atoms: C_19  and  O_20
REMARK                            x       y       z     vdW  Elec       q    Type
REMARK                         _______ _______ _______ _____ _____    ______ ____
ROOT
ATOM      1  O   UNL     1      32.127  19.040  68.920  0.00  0.00    +0.000 OA
ATOM      2  C   UNL     1      32.123  20.305  69.037  0.00  0.00    +0.000 C 
ENDROOT
BRANCH   2   3
ATOM      3  C   UNL     1      32.262  21.183  67.804  0.00  0.00    +0.000 C 
BRANCH   3   4
ATOM      4  C   UNL     1      30.882  21.573  67.301  0.00  0.00    +0.000 C 
BRANCH   4   5
ATOM      5  C   UNL     1      30.761  23.088  67.277  0.00  0.00    +0.000 C 
BRANCH   5   6
ATOM      6  C   UNL     1      32.149  23.707  67.314  0.00  0.00    +0.000 C 
BRANCH   6   7
ATOM      7  C   UNL     1      32.040  25.174  67.698  0.00  0.00    +0.000 A 
ATOM      8  C   UNL     1      30.767  25.664  67.880  0.00  0.00    +0.000 A 
ATOM      9  C   UNL     1      30.555  26.960  68.364  0.00  0.00    +0.000 A 
ATOM     10  C   UNL     1      31.692  27.734  68.674  0.00  0.00    +0.000 A 
ATOM     11  C   UNL     1      32.958  27.244  68.459  0.00  0.00    +0.000 A 
ATOM     12  C   UNL     1      33.130  25.960  67.980  0.00  0.00    +0.000 A 
BRANCH  10  13
ATOM     13  O   UNL     1      31.585  28.989  69.169  0.00  0.00    +0.000 OA
ATOM     14  H   UNL     1      31.301  29.129  70.117  0.00  0.00    +0.000 HD
ENDBRANCH  10  13
ENDBRANCH   6   7
ENDBRANCH   5   6
ENDBRANCH   4   5
ENDBRANCH   3   4
ENDBRANCH   2   3
BRANCH   2  15
ATOM     15  C   UNL     1      31.981  20.942  70.409  0.00  0.00    +0.000 C 
BRANCH  15  16
ATOM     16  C   UNL     1      33.069  21.987  70.599  0.00  0.00    +0.000 C 
BRANCH  16  17
ATOM     17  C   UNL     1      32.436  23.310  70.997  0.00  0.00    +0.000 A 
ATOM     18  C   UNL     1      31.065  23.438  71.014  0.00  0.00    +0.000 A 
ATOM     19  C   UNL     1      30.457  24.642  71.387  0.00  0.00    +0.000 A 
ATOM     20  C   UNL     1      31.299  25.709  71.761  0.00  0.00    +0.000 A 
ATOM     21  C   UNL     1      32.667  25.579  71.713  0.00  0.00    +0.000 A 
ATOM     22  C   UNL     1      33.233  24.376  71.340  0.00  0.00    +0.000 A 
BRANCH  20  23
ATOM     23  O   UNL     1      30.800  26.901  72.160  0.00  0.00    +0.000 OA
ATOM     24  H   UNL     1      30.511  27.031  73.108  0.00  0.00    +0.000 HD
ENDBRANCH  20  23
ENDBRANCH  16  17
ENDBRANCH  15  16
ENDBRANCH   2  15
TORSDOF 10
ENDMDL
MODEL 5
REMARK VINA RESULT:    -6.403     14.633     16.304
REMARK INTER + INTRA:         -13.110
REMARK INTER:                 -10.086
REMARK INTRA:                  -3.024
REMARK UNBOUND:                -3.338
REMARK  Name = 
REMARK  10 active torsions:
REMARK  status: ('A' for Active; 'I' for Inactive)
REMARK    1  A    between atoms: C_2  and  C_3
REMARK    2  A    between atoms: C_2  and  C_14
REMARK    3  A    between atoms: C_3  and  C_4
REMARK    4  A    between atoms: C_4  and  C_5
REMARK    5  A    between atoms: C_5  and  C_6
REMARK    6  A    between atoms: C_6  and  C_7
REMARK    7  A    between atoms: C_10  and  O_11
REMARK    8  A    between atoms: C_14  and  C_15
REMARK    9  A    between atoms: C_15  and  C_16
REMARK   10  A    between atoms: C_19  and  O_20
REMARK                            x       y       z     vdW  Elec       q    Type
REMARK                         _______ _______ _______ _____ _____    ______ ____
ROOT
ATOM      1  O   UNL     1      48.128  21.700  73.508  0.00  0.00    +0.000 OA
ATOM      2  C   UNL     1      47.973  20.679  72.768  0.00  0.00    +0.000 C 
ENDROOT
BRANCH   2   3
ATOM      3  C   UNL     1      49.157  20.106  72.006  0.00  0.00    +0.000 C 
BRANCH   3   4
ATOM      4  C   UNL     1      49.080  18.588  72.016  0.00  0.00    +0.000 C 
BRANCH   4   5
ATOM      5  C   UNL     1      49.236  18.064  70.598  0.00  0.00    +0.000 C 
BRANCH   5   6
ATOM      6  C   UNL     1      49.375  19.234  69.638  0.00  0.00    +0.000 C 
BRANCH   6   7
ATOM      7  C   UNL     1      48.776  18.860  68.292  0.00  0.00    +0.000 A 
ATOM      8  C   UNL     1      48.506  17.525  68.094  0.00  0.00    +0.000 A 
ATOM      9  C   UNL     1      47.831  17.087  66.949  0.00  0.00    +0.000 A 
ATOM     10  C   UNL     1      47.425  18.065  66.017  0.00  0.00    +0.000 A 
ATOM     11  C   UNL     1      47.728  19.391  66.212  0.00  0.00    +0.000 A 
ATOM     12  C   UNL     1      48.395  19.788  67.354  0.00  0.00    +0.000 A 
BRANCH  10  13
ATOM     13  O   UNL     1      46.748  17.738  64.893  0.00  0.00    +0.000 OA
ATOM     14  H   UNL     1      46.889  16.844  64.467  0.00  0.00    +0.000 HD
ENDBRANCH  10  13
ENDBRANCH   6   7
ENDBRANCH   5   6
ENDBRANCH   4   5
ENDBRANCH   3   4
ENDBRANCH   2   3
BRANCH   2  15
ATOM     15  C   UNL     1      46.605  20.031  72.643  0.00  0.00    +0.000 C 
BRANCH  15  16
ATOM     16  C   UNL     1      46.006  20.367  71.287  0.00  0.00    +0.000 C 
BRANCH  16  17
ATOM     17  C   UNL     1      45.586  19.086  70.586  0.00  0.00    +0.000 A 
ATOM     18  C   UNL     1      45.569  17.897  71.282  0.00  0.00    +0.000 A 
ATOM     19  C   UNL     1      45.176  16.705  70.663  0.00  0.00    +0.000 A 
ATOM     20  C   UNL     1      44.782  16.770  69.311  0.00  0.00    +0.000 A 
ATOM     21  C   UNL     1      44.830  17.958  68.620  0.00  0.00    +0.000 A 
ATOM     22  C   UNL     1      45.223  19.116  69.261  0.00  0.00    +0.000 A 
BRANCH  20  23
ATOM     23  O   UNL     1      44.363  15.674  68.640  0.00  0.00    +0.000 OA
ATOM     24  H   UNL     1      44.013  14.883  69.142  0.00  0.00    +0.000 HD
ENDBRANCH  20  23
ENDBRANCH  16  17
ENDBRANCH  15  16
ENDBRANCH   2  15
TORSDOF 10
ENDMDL
