MODEL 1
REMARK VINA RESULT:    -7.499      0.000      0.000
REMARK INTER + INTRA:         -10.485
REMARK INTER:                  -9.718
REMARK INTRA:                  -0.767
REMARK UNBOUND:                -0.795
REMARK  Name = 
REMARK  7 active torsions:
REMARK  status: ('A' for Active; 'I' for Inactive)
REMARK    1  A    between atoms: C_1  and  O_2
REMARK    2  A    between atoms: O_2  and  C_3
REMARK    3  A    between atoms: C_6  and  C_7
REMARK    4  A    between atoms: C_7  and  C_9
REMARK    5  A    between atoms: C_10  and  C_11
REMARK    6  A    between atoms: C_14  and  O_15
REMARK    7  A    between atoms: C_18  and  O_19
REMARK                            x       y       z     vdW  Elec       q    Type
REMARK                         _______ _______ _______ _____ _____    ______ ____
ROOT
ATOM      1  C   UNL     1      31.296  22.743  71.804  0.00  0.00    +0.000 C 
ATOM      2  O   UNL     1      31.024  22.599  73.036  0.00  0.00    +0.000 OA
ENDROOT
BRANCH   1   6
ATOM      3  C   UNL     1      31.294  19.332  69.214  0.00  0.00    +0.000 A 
ATOM      4  C   UNL     1      30.534  20.435  68.907  0.00  0.00    +0.000 A 
ATOM      5  C   UNL     1      30.535  21.533  69.746  0.00  0.00    +0.000 A 
ATOM      6  C   UNL     1      31.310  21.536  70.881  0.00  0.00    +0.000 A 
ATOM      7  C   UNL     1      32.099  20.449  71.184  0.00  0.00    +0.000 A 
ATOM      8  C   UNL     1      32.121  19.321  70.356  0.00  0.00    +0.000 A 
BRANCH   3  10
ATOM      9  C   UNL     1      31.363  16.955  68.872  0.00  0.00    +0.000 C 
ATOM     10  O   UNL     1      31.232  18.277  68.370  0.00  0.00    +0.000 OA
ENDBRANCH   3  10
BRANCH   7  11
ATOM     11  O   UNL     1      32.902  20.473  72.354  0.00  0.00    +0.000 OA
ATOM     12  H   UNL     1      32.659  21.071  73.117  0.00  0.00    +0.000 HD
ENDBRANCH   7  11
ENDBRANCH   1   6
BRANCH   1  13
ATOM     13  C   UNL     1      31.609  24.124  71.252  0.00  0.00    +0.000 C 
ATOM     14  C   UNL     1      32.892  24.464  70.956  0.00  0.00    +0.000 C 
BRANCH  14  15
ATOM     15  C   UNL     1      33.206  25.844  70.403  0.00  0.00    +0.000 A 
ATOM     16  C   UNL     1      32.892  26.165  69.100  0.00  0.00    +0.000 A 
ATOM     17  C   UNL     1      33.130  27.447  68.595  0.00  0.00    +0.000 A 
ATOM     18  C   UNL     1      33.685  28.402  69.472  0.00  0.00    +0.000 A 
ATOM     19  C   UNL     1      34.021  28.062  70.762  0.00  0.00    +0.000 A 
ATOM     20  C   UNL     1      33.771  26.786  71.228  0.00  0.00    +0.000 A 
BRANCH  18  21
ATOM     21  O   UNL     1      33.927  29.674  69.079  0.00  0.00    +0.000 OA
ATOM     22  H   UNL     1      34.574  29.852  68.337  0.00  0.00    +0.000 HD
ENDBRANCH  18  21
ENDBRANCH  14  15
ENDBRANCH   1  13
TORSDOF 6
ENDMDL
MODEL 2
REMARK VINA RESULT:    -7.479      3.025      8.286
REMARK INTER + INTRA:         -10.459
REMARK INTER:                  -9.780
REMARK INTRA:                  -0.679
REMARK UNBOUND:                -0.795
REMARK  Name = 
REMARK  7 active torsions:
REMARK  status: ('A' for Active; 'I' for Inactive)
REMARK    1  A    between atoms: C_1  and  O_2
REMARK    2  A    between atoms: O_2  and  C_3
REMARK    3  A    between atoms: C_6  and  C_7
REMARK    4  A    between atoms: C_7  and  C_9
REMARK    5  A    between atoms: C_10  and  C_11
REMARK    6  A    between atoms: C_14  and  O_15
REMARK    7  A    between atoms: C_18  and  O_19
REMARK                            x       y       z     vdW  Elec       q    Type
REMARK                         _______ _______ _______ _____ _____    ______ ____
ROOT
ATOM      1  C   UNL     1      32.243  21.441  68.394  0.00  0.00    +0.000 C 
ATOM      2  O   UNL     1      32.945  21.891  67.435  0.00  0.00    +0.000 OA
ENDROOT
BRANCH   1   6
ATOM      3  C   UNL     1      31.393  23.942  71.766  0.00  0.00    +0.000 A 
ATOM      4  C   UNL     1      30.403  23.166  71.212  0.00  0.00    +0.000 A 
ATOM      5  C   UNL     1      30.681  22.362  70.123  0.00  0.00    +0.000 A 
ATOM      6  C   UNL     1      31.950  22.320  69.599  0.00  0.00    +0.000 A 
ATOM      7  C   UNL     1      32.958  23.070  70.164  0.00  0.00    +0.000 A 
ATOM      8  C   UNL     1      32.711  23.894  71.267  0.00  0.00    +0.000 A 
BRANCH   3  10
ATOM      9  C   UNL     1      31.945  24.870  73.911  0.00  0.00    +0.000 C 
ATOM     10  O   UNL     1      31.057  24.728  72.813  0.00  0.00    +0.000 OA
ENDBRANCH   3  10
BRANCH   7  11
ATOM     11  O   UNL     1      34.267  23.006  69.618  0.00  0.00    +0.000 OA
ATOM     12  H   UNL     1      34.394  22.864  68.637  0.00  0.00    +0.000 HD
ENDBRANCH   7  11
ENDBRANCH   1   6
BRANCH   1  13
ATOM     13  C   UNL     1      31.698  20.024  68.337  0.00  0.00    +0.000 C 
ATOM     14  C   UNL     1      31.831  19.200  69.411  0.00  0.00    +0.000 C 
BRANCH  14  15
ATOM     15  C   UNL     1      31.285  17.783  69.355  0.00  0.00    +0.000 A 
ATOM     16  C   UNL     1      30.597  17.254  70.425  0.00  0.00    +0.000 A 
ATOM     17  C   UNL     1      30.048  15.969  70.367  0.00  0.00    +0.000 A 
ATOM     18  C   UNL     1      30.208  15.245  69.167  0.00  0.00    +0.000 A 
ATOM     19  C   UNL     1      30.922  15.772  68.116  0.00  0.00    +0.000 A 
ATOM     20  C   UNL     1      31.451  17.045  68.208  0.00  0.00    +0.000 A 
BRANCH  18  21
ATOM     21  O   UNL     1      29.690  14.005  69.010  0.00  0.00    +0.000 OA
ATOM     22  H   UNL     1      28.699  13.875  69.010  0.00  0.00    +0.000 HD
ENDBRANCH  18  21
ENDBRANCH  14  15
ENDBRANCH   1  13
TORSDOF 6
ENDMDL
MODEL 3
REMARK VINA RESULT:    -7.467      2.243      3.283
REMARK INTER + INTRA:         -10.444
REMARK INTER:                 -10.034
REMARK INTRA:                  -0.411
REMARK UNBOUND:                -0.795
REMARK  Name = 
REMARK  7 active torsions:
REMARK  status: ('A' for Active; 'I' for Inactive)
REMARK    1  A    between atoms: C_1  and  O_2
REMARK    2  A    between atoms: O_2  and  C_3
REMARK    3  A    between atoms: C_6  and  C_7
REMARK    4  A    between atoms: C_7  and  C_9
REMARK    5  A    between atoms: C_10  and  C_11
REMARK    6  A    between atoms: C_14  and  O_15
REMARK    7  A    between atoms: C_18  and  O_19
REMARK                            x       y       z     vdW  Elec       q    Type
REMARK                         _______ _______ _______ _____ _____    ______ ____
ROOT
ATOM      1  C   UNL     1      32.140  20.115  71.463  0.00  0.00    +0.000 C 
ATOM      2  O   UNL     1      32.509  19.945  72.667  0.00  0.00    +0.000 OA
ENDROOT
BRANCH   1   6
ATOM      3  C   UNL     1      31.222  16.743  68.988  0.00  0.00    +0.000 A 
ATOM      4  C   UNL     1      31.224  18.011  68.458  0.00  0.00    +0.000 A 
ATOM      5  C   UNL     1      31.520  19.097  69.260  0.00  0.00    +0.000 A 
ATOM      6  C   UNL     1      31.829  18.914  70.586  0.00  0.00    +0.000 A 
ATOM      7  C   UNL     1      31.859  17.646  71.122  0.00  0.00    +0.000 A 
ATOM      8  C   UNL     1      31.565  16.525  70.339  0.00  0.00    +0.000 A 
BRANCH   3  10
ATOM      9  C   UNL     1      31.224  14.386  68.521  0.00  0.00    +0.000 C 
ATOM     10  O   UNL     1      30.900  15.722  68.162  0.00  0.00    +0.000 OA
ENDBRANCH   3  10
BRANCH   7  11
ATOM     11  O   UNL     1      32.192  17.473  72.491  0.00  0.00    +0.000 OA
ATOM     12  H   UNL     1      33.012  16.962  72.746  0.00  0.00    +0.000 HD
ENDBRANCH   7  11
ENDBRANCH   1   6
BRANCH   1  13
ATOM     13  C   UNL     1      32.012  21.521  70.900  0.00  0.00    +0.000 C 
ATOM     14  C   UNL     1      30.873  22.235  71.105  0.00  0.00    +0.000 C 
BRANCH  14  15
ATOM     15  C   UNL     1      30.745  23.641  70.542  0.00  0.00    +0.000 A 
ATOM     16  C   UNL     1      31.043  24.738  71.321  0.00  0.00    +0.000 A 
ATOM     17  C   UNL     1      30.976  26.033  70.800  0.00  0.00    +0.000 A 
ATOM     18  C   UNL     1      30.611  26.174  69.444  0.00  0.00    +0.000 A 
ATOM     19  C   UNL     1      30.287  25.073  68.685  0.00  0.00    +0.000 A 
ATOM     20  C   UNL     1      30.364  23.807  69.232  0.00  0.00    +0.000 A 
BRANCH  18  21
ATOM     21  O   UNL     1      30.544  27.385  68.847  0.00  0.00    +0.000 OA
ATOM     22  H   UNL     1      30.716  27.469  67.866  0.00  0.00    +0.000 HD
ENDBRANCH  18  21
ENDBRANCH  14  15
ENDBRANCH   1  13
TORSDOF 6
ENDMDL
MODEL 4
REMARK VINA RESULT:    -7.465      2.925      8.423
REMARK INTER + INTRA:         -10.442
REMARK INTER:                  -9.629
REMARK INTRA:                  -0.812
REMARK UNBOUND:                -0.795
REMARK  Name = 
REMARK  7 active torsions:
REMARK  status: ('A' for Active; 'I' for Inactive)
REMARK    1  A    between atoms: C_1  and  O_2
REMARK    2  A    between atoms: O_2  and  C_3
REMARK    3  A    between atoms: C_6  and  C_7
REMARK    4  A    between atoms: C_7  and  C_9
REMARK    5  A    between atoms: C_10  and  C_11
REMARK    6  A    between atoms: C_14  and  O_15
REMARK    7  A    between atoms: C_18  and  O_19
REMARK                            x       y       z     vdW  Elec       q    Type
REMARK                         _______ _______ _______ _____ _____    ______ ____
ROOT
ATOM      1  C   UNL     1      29.539  20.931  69.294  0.00  0.00    +0.000 C 
ATOM      2  O   UNL     1      28.573  21.535  69.856  0.00  0.00    +0.000 OA
ENDROOT
BRANCH   1   6
ATOM      3  C   UNL     1      32.900  23.121  67.792  0.00  0.00    +0.000 A 
ATOM      4  C   UNL     1      31.953  22.625  66.927  0.00  0.00    +0.000 A 
ATOM      5  C   UNL     1      30.871  21.918  67.415  0.00  0.00    +0.000 A 
ATOM      6  C   UNL     1      30.726  21.721  68.767  0.00  0.00    +0.000 A 
ATOM      7  C   UNL     1      31.651  22.237  69.646  0.00  0.00    +0.000 A 
ATOM      8  C   UNL     1      32.759  22.959  69.185  0.00  0.00    +0.000 A 
BRANCH   3  10
ATOM      9  C   UNL     1      34.450  24.954  67.882  0.00  0.00    +0.000 C 
ATOM     10  O   UNL     1      33.950  23.782  67.255  0.00  0.00    +0.000 OA
ENDBRANCH   3  10
BRANCH   7  11
ATOM     11  O   UNL     1      31.481  22.035  71.040  0.00  0.00    +0.000 OA
ATOM     12  H   UNL     1      31.849  21.215  71.476  0.00  0.00    +0.000 HD
ENDBRANCH   7  11
ENDBRANCH   1   6
BRANCH   1  13
ATOM     13  C   UNL     1      29.508  19.419  69.147  0.00  0.00    +0.000 C 
ATOM     14  C   UNL     1      30.626  18.687  69.400  0.00  0.00    +0.000 C 
BRANCH  14  15
ATOM     15  C   UNL     1      30.595  17.175  69.254  0.00  0.00    +0.000 A 
ATOM     16  C   UNL     1      29.394  16.499  69.212  0.00  0.00    +0.000 A 
ATOM     17  C   UNL     1      29.351  15.114  69.028  0.00  0.00    +0.000 A 
ATOM     18  C   UNL     1      30.579  14.438  68.871  0.00  0.00    +0.000 A 
ATOM     19  C   UNL     1      31.772  15.119  68.944  0.00  0.00    +0.000 A 
ATOM     20  C   UNL     1      31.778  16.488  69.126  0.00  0.00    +0.000 A 
BRANCH  18  21
ATOM     21  O   UNL     1      30.635  13.103  68.664  0.00  0.00    +0.000 OA
ATOM     22  H   UNL     1      31.058  12.743  67.832  0.00  0.00    +0.000 HD
ENDBRANCH  18  21
ENDBRANCH  14  15
ENDBRANCH   1  13
TORSDOF 6
ENDMDL
MODEL 5
REMARK VINA RESULT:    -7.337     15.447     16.469
REMARK INTER + INTRA:         -10.276
REMARK INTER:                  -9.481
REMARK INTRA:                  -0.795
REMARK UNBOUND:                -0.795
REMARK  Name = 
REMARK  7 active torsions:
REMARK  status: ('A' for Active; 'I' for Inactive)
REMARK    1  A    between atoms: C_1  and  O_2
REMARK    2  A    between atoms: O_2  and  C_3
REMARK    3  A    between atoms: C_6  and  C_7
REMARK    4  A    between atoms: C_7  and  C_9
REMARK    5  A    between atoms: C_10  and  C_11
REMARK    6  A    between atoms: C_14  and  O_15
REMARK    7  A    between atoms: C_18  and  O_19
REMARK                            x       y       z     vdW  Elec       q    Type
REMARK                         _______ _______ _______ _____ _____    ______ ____
ROOT
ATOM      1  C   UNL     1      45.597  19.123  67.661  0.00  0.00    +0.000 C 
ATOM      2  O   UNL     1      44.533  18.669  67.135  0.00  0.00    +0.000 OA
ENDROOT
BRANCH   1   6
ATOM      3  C   UNL     1      49.091  19.674  65.247  0.00  0.00    +0.000 A 
ATOM      4  C   UNL     1      48.593  20.716  65.993  0.00  0.00    +0.000 A 
ATOM      5  C   UNL     1      47.465  20.534  66.769  0.00  0.00    +0.000 A 
ATOM      6  C   UNL     1      46.844  19.309  66.814  0.00  0.00    +0.000 A 
ATOM      7  C   UNL     1      47.351  18.250  66.095  0.00  0.00    +0.000 A 
ATOM      8  C   UNL     1      48.492  18.398  65.299  0.00  0.00    +0.000 A 
BRANCH   3  10
ATOM      9  C   UNL     1      50.133  19.707  63.083  0.00  0.00    +0.000 C 
ATOM     10  O   UNL     1      50.182  19.917  64.487  0.00  0.00    +0.000 OA
ENDBRANCH   3  10
BRANCH   7  11
ATOM     11  O   UNL     1      46.706  16.987  66.161  0.00  0.00    +0.000 OA
ATOM     12  H   UNL     1      45.745  16.929  66.430  0.00  0.00    +0.000 HD
ENDBRANCH   7  11
ENDBRANCH   1   6
BRANCH   1  13
ATOM     13  C   UNL     1      45.622  19.478  69.138  0.00  0.00    +0.000 C 
ATOM     14  C   UNL     1      46.425  18.785  69.991  0.00  0.00    +0.000 C 
BRANCH  14  15
ATOM     15  C   UNL     1      46.451  19.141  71.468  0.00  0.00    +0.000 A 
ATOM     16  C   UNL     1      47.055  20.302  71.899  0.00  0.00    +0.000 A 
ATOM     17  C   UNL     1      47.043  20.664  73.250  0.00  0.00    +0.000 A 
ATOM     18  C   UNL     1      46.374  19.807  74.149  0.00  0.00    +0.000 A 
ATOM     19  C   UNL     1      45.800  18.637  73.711  0.00  0.00    +0.000 A 
ATOM     20  C   UNL     1      45.830  18.310  72.370  0.00  0.00    +0.000 A 
BRANCH  18  21
ATOM     21  O   UNL     1      46.289  20.088  75.470  0.00  0.00    +0.000 OA
ATOM     22  H   UNL     1      46.692  19.465  76.140  0.00  0.00    +0.000 HD
ENDBRANCH  18  21
ENDBRANCH  14  15
ENDBRANCH   1  13
TORSDOF 6
ENDMDL
