MODEL 1
REMARK VINA RESULT:    -7.741      0.000      0.000
REMARK INTER + INTRA:         -10.947
REMARK INTER:                 -10.222
REMARK INTRA:                  -0.725
REMARK UNBOUND:                -0.717
REMARK  Name = 
REMARK  8 active torsions:
REMARK  status: ('A' for Active; 'I' for Inactive)
REMARK    1  A    between atoms: C_1  and  O_2
REMARK    2  A    between atoms: O_2  and  C_3
REMARK    3  A    between atoms: C_6  and  C_7
REMARK    4  A    between atoms: C_8  and  C_9
REMARK    5  A    between atoms: C_9  and  C_11
REMARK    6  A    between atoms: C_14  and  O_15
REMARK    7  A    between atoms: O_15  and  C_16
REMARK    8  A    between atoms: C_18  and  O_19
REMARK                            x       y       z     vdW  Elec       q    Type
REMARK                         _______ _______ _______ _____ _____    ______ ____
ROOT
ATOM      1  C   UNL     1      31.517  22.723  71.720  0.00  0.00    +0.000 C 
ATOM      2  O   UNL     1      31.010  22.806  72.882  0.00  0.00    +0.000 OA
ENDROOT
BRANCH   1   3
ATOM      3  C   UNL     1      32.297  23.895  71.146  0.00  0.00    +0.000 A 
ATOM      4  C   UNL     1      33.425  23.651  70.380  0.00  0.00    +0.000 A 
ATOM      5  C   UNL     1      34.221  24.798  70.151  0.00  0.00    +0.000 A 
ATOM      6  C   UNL     1      33.807  26.042  70.307  0.00  0.00    +0.000 A 
ATOM      7  C   UNL     1      32.649  26.211  71.016  0.00  0.00    +0.000 A 
ATOM      8  C   UNL     1      31.884  25.134  71.389  0.00  0.00    +0.000 A 
BRANCH   6   9
ATOM      9  O   UNL     1      34.523  27.143  69.769  0.00  0.00    +0.000 OA
ATOM     10  C   UNL     1      34.158  28.469  70.124  0.00  0.00    +0.000 C 
ENDBRANCH   6   9
BRANCH   8  11
ATOM     11  O   UNL     1      30.641  25.345  72.041  0.00  0.00    +0.000 OA
ATOM     12  H   UNL     1      30.322  26.275  72.222  0.00  0.00    +0.000 HD
ENDBRANCH   8  11
ENDBRANCH   1   3
BRANCH   1  14
ATOM     13  C   UNL     1      32.008  20.318  71.262  0.00  0.00    +0.000 C 
ATOM     14  C   UNL     1      31.346  21.452  70.903  0.00  0.00    +0.000 C 
BRANCH  13  18
ATOM     15  C   UNL     1      31.291  16.775  68.988  0.00  0.00    +0.000 A 
ATOM     16  C   UNL     1      31.271  17.997  68.338  0.00  0.00    +0.000 A 
ATOM     17  C   UNL     1      31.734  19.075  69.129  0.00  0.00    +0.000 A 
ATOM     18  C   UNL     1      31.836  19.048  70.446  0.00  0.00    +0.000 A 
ATOM     19  C   UNL     1      31.779  17.816  71.034  0.00  0.00    +0.000 A 
ATOM     20  C   UNL     1      31.463  16.697  70.303  0.00  0.00    +0.000 A 
BRANCH  15  22
ATOM     21  C   UNL     1      31.375  14.343  68.631  0.00  0.00    +0.000 C 
ATOM     22  O   UNL     1      30.978  15.636  68.199  0.00  0.00    +0.000 OA
ENDBRANCH  15  22
ENDBRANCH  13  18
ENDBRANCH   1  14
TORSDOF 6
ENDMDL
MODEL 2
REMARK VINA RESULT:    -7.683      1.404      8.670
REMARK INTER + INTRA:         -10.870
REMARK INTER:                 -10.147
REMARK INTRA:                  -0.723
REMARK UNBOUND:                -0.717
REMARK  Name = 
REMARK  8 active torsions:
REMARK  status: ('A' for Active; 'I' for Inactive)
REMARK    1  A    between atoms: C_1  and  O_2
REMARK    2  A    between atoms: O_2  and  C_3
REMARK    3  A    between atoms: C_6  and  C_7
REMARK    4  A    between atoms: C_8  and  C_9
REMARK    5  A    between atoms: C_9  and  C_11
REMARK    6  A    between atoms: C_14  and  O_15
REMARK    7  A    between atoms: O_15  and  C_16
REMARK    8  A    between atoms: C_18  and  O_19
REMARK                            x       y       z     vdW  Elec       q    Type
REMARK                         _______ _______ _______ _____ _____    ______ ____
ROOT
ATOM      1  C   UNL     1      31.735  22.701  71.572  0.00  0.00    +0.000 C 
ATOM      2  O   UNL     1      30.994  22.775  72.601  0.00  0.00    +0.000 OA
ENDROOT
BRANCH   1   3
ATOM      3  C   UNL     1      31.787  21.414  70.765  0.00  0.00    +0.000 A 
ATOM      4  C   UNL     1      31.373  21.424  69.442  0.00  0.00    +0.000 A 
ATOM      5  C   UNL     1      31.191  20.134  68.890  0.00  0.00    +0.000 A 
ATOM      6  C   UNL     1      31.688  19.022  69.400  0.00  0.00    +0.000 A 
ATOM      7  C   UNL     1      32.142  19.095  70.688  0.00  0.00    +0.000 A 
ATOM      8  C   UNL     1      32.227  20.301  71.340  0.00  0.00    +0.000 A 
BRANCH   6   9
ATOM      9  O   UNL     1      31.748  17.817  68.652  0.00  0.00    +0.000 OA
ATOM     10  C   UNL     1      31.102  16.648  69.136  0.00  0.00    +0.000 C 
ENDBRANCH   6   9
BRANCH   8  11
ATOM     11  O   UNL     1      32.791  20.359  72.642  0.00  0.00    +0.000 OA
ATOM     12  H   UNL     1      32.677  21.180  73.201  0.00  0.00    +0.000 HD
ENDBRANCH   8  11
ENDBRANCH   1   3
BRANCH   1  14
ATOM     13  C   UNL     1      31.959  25.069  70.815  0.00  0.00    +0.000 C 
ATOM     14  C   UNL     1      32.569  23.898  71.147  0.00  0.00    +0.000 C 
BRANCH  13  18
ATOM     15  C   UNL     1      34.167  28.569  69.758  0.00  0.00    +0.000 A 
ATOM     16  C   UNL     1      34.499  27.901  70.924  0.00  0.00    +0.000 A 
ATOM     17  C   UNL     1      33.863  26.645  71.067  0.00  0.00    +0.000 A 
ATOM     18  C   UNL     1      32.793  26.266  70.390  0.00  0.00    +0.000 A 
ATOM     19  C   UNL     1      32.478  27.009  69.287  0.00  0.00    +0.000 A 
ATOM     20  C   UNL     1      33.142  28.178  69.008  0.00  0.00    +0.000 A 
BRANCH  15  22
ATOM     21  C   UNL     1      36.080  30.050  70.201  0.00  0.00    +0.000 C 
ATOM     22  O   UNL     1      34.885  29.765  69.489  0.00  0.00    +0.000 OA
ENDBRANCH  15  22
ENDBRANCH  13  18
ENDBRANCH   1  14
TORSDOF 6
ENDMDL
MODEL 3
REMARK VINA RESULT:    -7.616      2.424      3.686
REMARK INTER + INTRA:         -10.781
REMARK INTER:                 -10.145
REMARK INTRA:                  -0.637
REMARK UNBOUND:                -0.717
REMARK  Name = 
REMARK  8 active torsions:
REMARK  status: ('A' for Active; 'I' for Inactive)
REMARK    1  A    between atoms: C_1  and  O_2
REMARK    2  A    between atoms: O_2  and  C_3
REMARK    3  A    between atoms: C_6  and  C_7
REMARK    4  A    between atoms: C_8  and  C_9
REMARK    5  A    between atoms: C_9  and  C_11
REMARK    6  A    between atoms: C_14  and  O_15
REMARK    7  A    between atoms: O_15  and  C_16
REMARK    8  A    between atoms: C_18  and  O_19
REMARK                            x       y       z     vdW  Elec       q    Type
REMARK                         _______ _______ _______ _____ _____    ______ ____
ROOT
ATOM      1  C   UNL     1      34.076  24.685  68.461  0.00  0.00    +0.000 C 
ATOM      2  O   UNL     1      34.250  24.844  67.212  0.00  0.00    +0.000 OA
ENDROOT
BRANCH   1   3
ATOM      3  C   UNL     1      34.326  25.841  69.416  0.00  0.00    +0.000 A 
ATOM      4  C   UNL     1      33.251  26.580  69.883  0.00  0.00    +0.000 A 
ATOM      5  C   UNL     1      33.621  27.789  70.519  0.00  0.00    +0.000 A 
ATOM      6  C   UNL     1      34.833  28.060  70.969  0.00  0.00    +0.000 A 
ATOM      7  C   UNL     1      35.841  27.250  70.523  0.00  0.00    +0.000 A 
ATOM      8  C   UNL     1      35.570  26.123  69.787  0.00  0.00    +0.000 A 
BRANCH   6   9
ATOM      9  O   UNL     1      35.076  29.131  71.867  0.00  0.00    +0.000 OA
ATOM     10  C   UNL     1      36.389  29.651  72.014  0.00  0.00    +0.000 C 
ENDBRANCH   6   9
BRANCH   8  11
ATOM     11  O   UNL     1      36.628  25.251  69.418  0.00  0.00    +0.000 OA
ATOM     12  H   UNL     1      36.927  25.202  68.464  0.00  0.00    +0.000 HD
ENDBRANCH   8  11
ENDBRANCH   1   3
BRANCH   1  14
ATOM     13  C   UNL     1      32.539  22.718  68.450  0.00  0.00    +0.000 C 
ATOM     14  C   UNL     1      33.618  23.340  68.999  0.00  0.00    +0.000 C 
BRANCH  13  18
ATOM     15  C   UNL     1      31.471  18.856  69.928  0.00  0.00    +0.000 A 
ATOM     16  C   UNL     1      32.062  19.760  70.794  0.00  0.00    +0.000 A 
ATOM     17  C   UNL     1      32.172  21.069  70.271  0.00  0.00    +0.000 A 
ATOM     18  C   UNL     1      32.081  21.373  68.988  0.00  0.00    +0.000 A 
ATOM     19  C   UNL     1      31.551  20.413  68.173  0.00  0.00    +0.000 A 
ATOM     20  C   UNL     1      31.293  19.149  68.644  0.00  0.00    +0.000 A 
BRANCH  15  22
ATOM     21  C   UNL     1      31.729  16.413  69.811  0.00  0.00    +0.000 C 
ATOM     22  O   UNL     1      31.199  17.564  70.451  0.00  0.00    +0.000 OA
ENDBRANCH  15  22
ENDBRANCH  13  18
ENDBRANCH   1  14
TORSDOF 6
ENDMDL
MODEL 4
REMARK VINA RESULT:    -7.610      1.899      2.972
REMARK INTER + INTRA:         -10.774
REMARK INTER:                  -9.994
REMARK INTRA:                  -0.780
REMARK UNBOUND:                -0.717
REMARK  Name = 
REMARK  8 active torsions:
REMARK  status: ('A' for Active; 'I' for Inactive)
REMARK    1  A    between atoms: C_1  and  O_2
REMARK    2  A    between atoms: O_2  and  C_3
REMARK    3  A    between atoms: C_6  and  C_7
REMARK    4  A    between atoms: C_8  and  C_9
REMARK    5  A    between atoms: C_9  and  C_11
REMARK    6  A    between atoms: C_14  and  O_15
REMARK    7  A    between atoms: O_15  and  C_16
REMARK    8  A    between atoms: C_18  and  O_19
REMARK                            x       y       z     vdW  Elec       q    Type
REMARK                         _______ _______ _______ _____ _____    ______ ____
ROOT
ATOM      1  C   UNL     1      31.468  24.992  71.702  0.00  0.00    +0.000 C 
ATOM      2  O   UNL     1      31.147  25.165  72.919  0.00  0.00    +0.000 OA
ENDROOT
BRANCH   1   3
ATOM      3  C   UNL     1      31.632  26.192  70.783  0.00  0.00    +0.000 A 
ATOM      4  C   UNL     1      30.654  26.463  69.839  0.00  0.00    +0.000 A 
ATOM      5  C   UNL     1      31.047  27.410  68.864  0.00  0.00    +0.000 A 
ATOM      6  C   UNL     1      32.066  28.241  68.992  0.00  0.00    +0.000 A 
ATOM      7  C   UNL     1      32.960  27.956  69.987  0.00  0.00    +0.000 A 
ATOM      8  C   UNL     1      32.709  26.960  70.900  0.00  0.00    +0.000 A 
BRANCH   6   9
ATOM      9  O   UNL     1      32.223  29.369  68.145  0.00  0.00    +0.000 OA
ATOM     10  C   UNL     1      32.018  29.239  66.745  0.00  0.00    +0.000 C 
ENDBRANCH   6   9
BRANCH   8  11
ATOM     11  O   UNL     1      33.609  26.749  71.977  0.00  0.00    +0.000 OA
ATOM     12  H   UNL     1      33.301  26.275  72.802  0.00  0.00    +0.000 HD
ENDBRANCH   8  11
ENDBRANCH   1   3
BRANCH   1  14
ATOM     13  C   UNL     1      30.622  22.822  70.804  0.00  0.00    +0.000 C 
ATOM     14  C   UNL     1      31.688  23.588  71.165  0.00  0.00    +0.000 C 
BRANCH  13  18
ATOM     15  C   UNL     1      31.420  18.959  69.166  0.00  0.00    +0.000 A 
ATOM     16  C   UNL     1      32.153  19.381  70.262  0.00  0.00    +0.000 A 
ATOM     17  C   UNL     1      31.665  20.568  70.857  0.00  0.00    +0.000 A 
ATOM     18  C   UNL     1      30.842  21.418  70.267  0.00  0.00    +0.000 A 
ATOM     19  C   UNL     1      30.200  20.965  69.149  0.00  0.00    +0.000 A 
ATOM     20  C   UNL     1      30.529  19.756  68.585  0.00  0.00    +0.000 A 
BRANCH  15  22
ATOM     21  C   UNL     1      31.817  16.549  69.452  0.00  0.00    +0.000 C 
ATOM     22  O   UNL     1      31.772  17.697  68.618  0.00  0.00    +0.000 OA
ENDBRANCH  15  22
ENDBRANCH  13  18
ENDBRANCH   1  14
TORSDOF 6
ENDMDL
MODEL 5
REMARK VINA RESULT:    -7.508      2.382      8.500
REMARK INTER + INTRA:         -10.639
REMARK INTER:                  -9.922
REMARK INTRA:                  -0.717
REMARK UNBOUND:                -0.717
REMARK  Name = 
REMARK  8 active torsions:
REMARK  status: ('A' for Active; 'I' for Inactive)
REMARK    1  A    between atoms: C_1  and  O_2
REMARK    2  A    between atoms: O_2  and  C_3
REMARK    3  A    between atoms: C_6  and  C_7
REMARK    4  A    between atoms: C_8  and  C_9
REMARK    5  A    between atoms: C_9  and  C_11
REMARK    6  A    between atoms: C_14  and  O_15
REMARK    7  A    between atoms: O_15  and  C_16
REMARK    8  A    between atoms: C_18  and  O_19
REMARK                            x       y       z     vdW  Elec       q    Type
REMARK                         _______ _______ _______ _____ _____    ______ ____
ROOT
ATOM      1  C   UNL     1      31.333  22.555  71.198  0.00  0.00    +0.000 C 
ATOM      2  O   UNL     1      30.941  22.629  72.404  0.00  0.00    +0.000 OA
ENDROOT
BRANCH   1   3
ATOM      3  C   UNL     1      31.493  21.198  70.533  0.00  0.00    +0.000 A 
ATOM      4  C   UNL     1      30.971  20.997  69.265  0.00  0.00    +0.000 A 
ATOM      5  C   UNL     1      30.923  19.637  68.875  0.00  0.00    +0.000 A 
ATOM      6  C   UNL     1      31.610  18.667  69.449  0.00  0.00    +0.000 A 
ATOM      7  C   UNL     1      32.157  18.951  70.670  0.00  0.00    +0.000 A 
ATOM      8  C   UNL     1      32.131  20.227  71.177  0.00  0.00    +0.000 A 
BRANCH   6   9
ATOM      9  O   UNL     1      31.772  17.399  68.833  0.00  0.00    +0.000 OA
ATOM     10  C   UNL     1      31.865  16.228  69.632  0.00  0.00    +0.000 C 
ENDBRANCH   6   9
BRANCH   8  11
ATOM     11  O   UNL     1      32.789  20.512  72.402  0.00  0.00    +0.000 OA
ATOM     12  H   UNL     1      33.773  20.693  72.412  0.00  0.00    +0.000 HD
ENDBRANCH   8  11
ENDBRANCH   1   3
BRANCH   1  14
ATOM     13  C   UNL     1      30.633  24.665  70.063  0.00  0.00    +0.000 C 
ATOM     14  C   UNL     1      31.641  23.824  70.420  0.00  0.00    +0.000 C 
BRANCH  13  18
ATOM     15  C   UNL     1      31.292  28.318  67.950  0.00  0.00    +0.000 A 
ATOM     16  C   UNL     1      31.623  28.257  69.292  0.00  0.00    +0.000 A 
ATOM     17  C   UNL     1      31.574  26.953  69.838  0.00  0.00    +0.000 A 
ATOM     18  C   UNL     1      30.941  25.934  69.285  0.00  0.00    +0.000 A 
ATOM     19  C   UNL     1      30.578  26.081  67.975  0.00  0.00    +0.000 A 
ATOM     20  C   UNL     1      30.718  27.289  67.335  0.00  0.00    +0.000 A 
BRANCH  15  22
ATOM     21  C   UNL     1      32.757  30.161  67.239  0.00  0.00    +0.000 C 
ATOM     22  O   UNL     1      31.466  29.575  67.312  0.00  0.00    +0.000 OA
ENDBRANCH  15  22
ENDBRANCH  13  18
ENDBRANCH   1  14
TORSDOF 6
ENDMDL
