MODEL 1
REMARK VINA RESULT:    -8.013      0.000      0.000
REMARK INTER + INTRA:          -9.868
REMARK INTER:                  -9.406
REMARK INTRA:                  -0.462
REMARK UNBOUND:                -0.450
REMARK  Name = 
REMARK  5 active torsions:
REMARK  status: ('A' for Active; 'I' for Inactive)
REMARK    1  A    between atoms: C_4  and  C_5
REMARK    2  A    between atoms: C_14  and  O_15
REMARK    3  A    between atoms: O_15  and  C_16
REMARK    4  A    between atoms: C_18  and  O_19
REMARK    5  A    between atoms: O_19  and  C_20
REMARK                            x       y       z     vdW  Elec       q    Type
REMARK                         _______ _______ _______ _____ _____    ______ ____
ROOT
ATOM      1  O   UNL     1      32.521  23.248  66.365  0.00  0.00    +0.000 OA
ATOM      2  C   UNL     1      32.499  22.920  67.553  0.00  0.00    +0.000 A 
ATOM      3  C   UNL     1      32.149  21.606  68.054  0.00  0.00    +0.000 A 
ATOM      4  C   UNL     1      32.222  21.367  69.444  0.00  0.00    +0.000 A 
ATOM      5  O   UNL     1      32.525  22.323  70.347  0.00  0.00    +0.000 OA
ATOM      6  C   UNL     1      32.877  23.592  69.922  0.00  0.00    +0.000 A 
ATOM      7  C   UNL     1      33.225  24.491  70.917  0.00  0.00    +0.000 A 
ATOM      8  C   UNL     1      33.607  25.762  70.533  0.00  0.00    +0.000 A 
ATOM      9  C   UNL     1      33.636  26.126  69.194  0.00  0.00    +0.000 A 
ATOM     10  C   UNL     1      33.279  25.213  68.224  0.00  0.00    +0.000 A 
ATOM     11  C   UNL     1      32.886  23.918  68.581  0.00  0.00    +0.000 A 
ENDROOT
BRANCH   4  12
ATOM     12  C   UNL     1      31.946  19.961  69.949  0.00  0.00    +0.000 A 
ATOM     13  C   UNL     1      32.116  19.682  71.295  0.00  0.00    +0.000 A 
ATOM     14  C   UNL     1      32.116  18.300  71.599  0.00  0.00    +0.000 A 
ATOM     15  C   UNL     1      31.649  17.357  70.800  0.00  0.00    +0.000 A 
ATOM     16  C   UNL     1      31.438  17.714  69.497  0.00  0.00    +0.000 A 
ATOM     17  C   UNL     1      31.546  19.024  69.096  0.00  0.00    +0.000 A 
ENDBRANCH   4  12
BRANCH   8  18
ATOM     18  O   UNL     1      33.974  26.712  71.523  0.00  0.00    +0.000 OA
ATOM     19  C   UNL     1      34.382  28.017  71.139  0.00  0.00    +0.000 C 
ENDBRANCH   8  18
BRANCH  10  20
ATOM     20  O   UNL     1      33.309  25.590  66.855  0.00  0.00    +0.000 OA
ATOM     21  C   UNL     1      32.854  26.877  66.463  0.00  0.00    +0.000 C 
ENDBRANCH  10  20
TORSDOF 3
ENDMDL
MODEL 2
REMARK VINA RESULT:    -7.987      2.215      7.633
REMARK INTER + INTRA:          -9.837
REMARK INTER:                  -9.427
REMARK INTRA:                  -0.411
REMARK UNBOUND:                -0.450
REMARK  Name = 
REMARK  5 active torsions:
REMARK  status: ('A' for Active; 'I' for Inactive)
REMARK    1  A    between atoms: C_4  and  C_5
REMARK    2  A    between atoms: C_14  and  O_15
REMARK    3  A    between atoms: O_15  and  C_16
REMARK    4  A    between atoms: C_18  and  O_19
REMARK    5  A    between atoms: O_19  and  C_20
REMARK                            x       y       z     vdW  Elec       q    Type
REMARK                         _______ _______ _______ _____ _____    ______ ____
ROOT
ATOM      1  O   UNL     1      32.231  24.886  72.104  0.00  0.00    +0.000 OA
ATOM      2  C   UNL     1      32.957  25.324  71.208  0.00  0.00    +0.000 A 
ATOM      3  C   UNL     1      33.666  26.587  71.245  0.00  0.00    +0.000 A 
ATOM      4  C   UNL     1      34.504  26.927  70.160  0.00  0.00    +0.000 A 
ATOM      5  O   UNL     1      34.620  26.174  69.046  0.00  0.00    +0.000 OA
ATOM      6  C   UNL     1      33.972  24.955  68.963  0.00  0.00    +0.000 A 
ATOM      7  C   UNL     1      34.194  24.226  67.805  0.00  0.00    +0.000 A 
ATOM      8  C   UNL     1      33.585  22.991  67.694  0.00  0.00    +0.000 A 
ATOM      9  C   UNL     1      32.774  22.499  68.708  0.00  0.00    +0.000 A 
ATOM     10  C   UNL     1      32.565  23.247  69.847  0.00  0.00    +0.000 A 
ATOM     11  C   UNL     1      33.167  24.504  69.989  0.00  0.00    +0.000 A 
ENDROOT
BRANCH   4  12
ATOM     12  C   UNL     1      35.316  28.208  70.251  0.00  0.00    +0.000 A 
ATOM     13  C   UNL     1      34.699  29.420  69.987  0.00  0.00    +0.000 A 
ATOM     14  C   UNL     1      35.599  30.497  69.815  0.00  0.00    +0.000 A 
ATOM     15  C   UNL     1      36.860  30.490  70.209  0.00  0.00    +0.000 A 
ATOM     16  C   UNL     1      37.392  29.269  70.521  0.00  0.00    +0.000 A 
ATOM     17  C   UNL     1      36.601  28.148  70.582  0.00  0.00    +0.000 A 
ENDBRANCH   4  12
BRANCH   8  18
ATOM     18  O   UNL     1      33.790  22.212  66.524  0.00  0.00    +0.000 OA
ATOM     19  C   UNL     1      35.040  21.574  66.305  0.00  0.00    +0.000 C 
ENDBRANCH   8  18
BRANCH  10  20
ATOM     20  O   UNL     1      31.734  22.741  70.881  0.00  0.00    +0.000 OA
ATOM     21  C   UNL     1      31.899  21.406  71.334  0.00  0.00    +0.000 C 
ENDBRANCH  10  20
TORSDOF 3
ENDMDL
MODEL 3
REMARK VINA RESULT:    -7.877      1.763      2.217
REMARK INTER + INTRA:          -9.708
REMARK INTER:                  -9.297
REMARK INTRA:                  -0.412
REMARK UNBOUND:                -0.450
REMARK  Name = 
REMARK  5 active torsions:
REMARK  status: ('A' for Active; 'I' for Inactive)
REMARK    1  A    between atoms: C_4  and  C_5
REMARK    2  A    between atoms: C_14  and  O_15
REMARK    3  A    between atoms: O_15  and  C_16
REMARK    4  A    between atoms: C_18  and  O_19
REMARK    5  A    between atoms: O_19  and  C_20
REMARK                            x       y       z     vdW  Elec       q    Type
REMARK                         _______ _______ _______ _____ _____    ______ ____
ROOT
ATOM      1  O   UNL     1      33.696  22.298  67.594  0.00  0.00    +0.000 OA
ATOM      2  C   UNL     1      32.883  21.935  68.447  0.00  0.00    +0.000 A 
ATOM      3  C   UNL     1      32.446  20.571  68.665  0.00  0.00    +0.000 A 
ATOM      4  C   UNL     1      31.545  20.306  69.720  0.00  0.00    +0.000 A 
ATOM      5  O   UNL     1      31.002  21.270  70.493  0.00  0.00    +0.000 OA
ATOM      6  C   UNL     1      31.392  22.588  70.334  0.00  0.00    +0.000 A 
ATOM      7  C   UNL     1      30.822  23.500  71.208  0.00  0.00    +0.000 A 
ATOM      8  C   UNL     1      31.203  24.823  71.098  0.00  0.00    +0.000 A 
ATOM      9  C   UNL     1      32.124  25.225  70.141  0.00  0.00    +0.000 A 
ATOM     10  C   UNL     1      32.671  24.298  69.279  0.00  0.00    +0.000 A 
ATOM     11  C   UNL     1      32.304  22.950  69.363  0.00  0.00    +0.000 A 
ENDROOT
BRANCH   4  12
ATOM     12  C   UNL     1      31.169  18.861  70.000  0.00  0.00    +0.000 A 
ATOM     13  C   UNL     1      30.130  18.284  69.288  0.00  0.00    +0.000 A 
ATOM     14  C   UNL     1      29.680  17.055  69.824  0.00  0.00    +0.000 A 
ATOM     15  C   UNL     1      30.364  16.315  70.678  0.00  0.00    +0.000 A 
ATOM     16  C   UNL     1      31.420  16.922  71.298  0.00  0.00    +0.000 A 
ATOM     17  C   UNL     1      31.838  18.174  70.919  0.00  0.00    +0.000 A 
ENDBRANCH   4  12
BRANCH   8  18
ATOM     18  O   UNL     1      30.645  25.787  71.978  0.00  0.00    +0.000 OA
ATOM     19  C   UNL     1      30.649  27.162  71.622  0.00  0.00    +0.000 C 
ENDBRANCH   8  18
BRANCH  10  20
ATOM     20  O   UNL     1      33.611  24.714  68.300  0.00  0.00    +0.000 OA
ATOM     21  C   UNL     1      33.334  25.842  67.483  0.00  0.00    +0.000 C 
ENDBRANCH  10  20
TORSDOF 3
ENDMDL
MODEL 4
REMARK VINA RESULT:    -7.671      3.489      8.041
REMARK INTER + INTRA:          -9.466
REMARK INTER:                  -9.012
REMARK INTRA:                  -0.454
REMARK UNBOUND:                -0.450
REMARK  Name = 
REMARK  5 active torsions:
REMARK  status: ('A' for Active; 'I' for Inactive)
REMARK    1  A    between atoms: C_4  and  C_5
REMARK    2  A    between atoms: C_14  and  O_15
REMARK    3  A    between atoms: O_15  and  C_16
REMARK    4  A    between atoms: C_18  and  O_19
REMARK    5  A    between atoms: O_19  and  C_20
REMARK                            x       y       z     vdW  Elec       q    Type
REMARK                         _______ _______ _______ _____ _____    ______ ____
ROOT
ATOM      1  O   UNL     1      34.198  24.822  70.034  0.00  0.00    +0.000 OA
ATOM      2  C   UNL     1      34.029  26.036  69.898  0.00  0.00    +0.000 A 
ATOM      3  C   UNL     1      34.860  27.070  70.481  0.00  0.00    +0.000 A 
ATOM      4  C   UNL     1      34.568  28.421  70.190  0.00  0.00    +0.000 A 
ATOM      5  O   UNL     1      33.503  28.810  69.459  0.00  0.00    +0.000 OA
ATOM      6  C   UNL     1      32.682  27.863  68.872  0.00  0.00    +0.000 A 
ATOM      7  C   UNL     1      31.645  28.356  68.095  0.00  0.00    +0.000 A 
ATOM      8  C   UNL     1      30.817  27.443  67.470  0.00  0.00    +0.000 A 
ATOM      9  C   UNL     1      31.016  26.078  67.620  0.00  0.00    +0.000 A 
ATOM     10  C   UNL     1      32.051  25.614  68.404  0.00  0.00    +0.000 A 
ATOM     11  C   UNL     1      32.907  26.514  69.052  0.00  0.00    +0.000 A 
ENDROOT
BRANCH   4  12
ATOM     12  C   UNL     1      35.502  29.491  70.727  0.00  0.00    +0.000 A 
ATOM     13  C   UNL     1      36.064  29.329  71.984  0.00  0.00    +0.000 A 
ATOM     14  C   UNL     1      36.671  30.499  72.497  0.00  0.00    +0.000 A 
ATOM     15  C   UNL     1      37.016  31.545  71.768  0.00  0.00    +0.000 A 
ATOM     16  C   UNL     1      36.482  31.613  70.511  0.00  0.00    +0.000 A 
ATOM     17  C   UNL     1      35.767  30.563  69.988  0.00  0.00    +0.000 A 
ENDBRANCH   4  12
BRANCH   8  18
ATOM     18  O   UNL     1      29.746  27.908  66.663  0.00  0.00    +0.000 OA
ATOM     19  C   UNL     1      29.758  29.237  66.163  0.00  0.00    +0.000 C 
ENDBRANCH   8  18
BRANCH  10  20
ATOM     20  O   UNL     1      32.250  24.217  68.556  0.00  0.00    +0.000 OA
ATOM     21  C   UNL     1      32.232  23.369  67.417  0.00  0.00    +0.000 C 
ENDBRANCH  10  20
TORSDOF 3
ENDMDL
MODEL 5
REMARK VINA RESULT:    -7.482      2.753      6.770
REMARK INTER + INTRA:          -9.244
REMARK INTER:                  -8.795
REMARK INTRA:                  -0.450
REMARK UNBOUND:                -0.450
REMARK  Name = 
REMARK  5 active torsions:
REMARK  status: ('A' for Active; 'I' for Inactive)
REMARK    1  A    between atoms: C_4  and  C_5
REMARK    2  A    between atoms: C_14  and  O_15
REMARK    3  A    between atoms: O_15  and  C_16
REMARK    4  A    between atoms: C_18  and  O_19
REMARK    5  A    between atoms: O_19  and  C_20
REMARK                            x       y       z     vdW  Elec       q    Type
REMARK                         _______ _______ _______ _____ _____    ______ ____
ROOT
ATOM      1  O   UNL     1      34.294  23.883  67.152  0.00  0.00    +0.000 OA
ATOM      2  C   UNL     1      34.038  24.456  68.213  0.00  0.00    +0.000 A 
ATOM      3  C   UNL     1      34.804  25.545  68.785  0.00  0.00    +0.000 A 
ATOM      4  C   UNL     1      34.353  26.135  69.987  0.00  0.00    +0.000 A 
ATOM      5  O   UNL     1      33.285  25.687  70.680  0.00  0.00    +0.000 OA
ATOM      6  C   UNL     1      32.513  24.656  70.174  0.00  0.00    +0.000 A 
ATOM      7  C   UNL     1      31.406  24.300  70.928  0.00  0.00    +0.000 A 
ATOM      8  C   UNL     1      30.595  23.291  70.444  0.00  0.00    +0.000 A 
ATOM      9  C   UNL     1      30.883  22.654  69.245  0.00  0.00    +0.000 A 
ATOM     10  C   UNL     1      31.995  23.024  68.519  0.00  0.00    +0.000 A 
ATOM     11  C   UNL     1      32.838  24.041  68.982  0.00  0.00    +0.000 A 
ENDROOT
BRANCH   4  12
ATOM     12  C   UNL     1      35.109  27.337  70.527  0.00  0.00    +0.000 A 
ATOM     13  C   UNL     1      34.425  28.288  71.268  0.00  0.00    +0.000 A 
ATOM     14  C   UNL     1      35.146  29.489  71.466  0.00  0.00    +0.000 A 
ATOM     15  C   UNL     1      36.452  29.614  71.307  0.00  0.00    +0.000 A 
ATOM     16  C   UNL     1      37.080  28.608  70.626  0.00  0.00    +0.000 A 
ATOM     17  C   UNL     1      36.409  27.460  70.283  0.00  0.00    +0.000 A 
ENDBRANCH   4  12
BRANCH   8  18
ATOM     18  O   UNL     1      29.449  22.900  71.186  0.00  0.00    +0.000 OA
ATOM     19  C   UNL     1      28.374  22.238  70.536  0.00  0.00    +0.000 C 
ENDBRANCH   8  18
BRANCH  10  20
ATOM     20  O   UNL     1      32.286  22.368  67.293  0.00  0.00    +0.000 OA
ATOM     21  C   UNL     1      31.229  21.887  66.476  0.00  0.00    +0.000 C 
ENDBRANCH  10  20
TORSDOF 3
ENDMDL
