REMARK  Name = D:\Andy\Inflam_NP\Docking_InFlam\Processed_CoCrystal\temp_ligand.pdb
REMARK  24 active torsions:
REMARK  status: ('A' for Active; 'I' for Inactive)
REMARK    1  A    between atoms: S1_1  and  C15_2
REMARK    2  A    between atoms: S1_1  and  N3_24
REMARK    3  A    between atoms: C12_5  and  N2_8
REMARK    4  A    between atoms: C3_9  and  C5_10
REMARK    5  A    between atoms: C8_13  and  C11_14
REMARK    6  A    between atoms: C1_18  and  C4_19
REMARK    7  A    between atoms: S1_27  and  C15_28
REMARK    8  A    between atoms: S1_27  and  N3_50
REMARK    9  A    between atoms: C12_31  and  N2_34
REMARK   10  A    between atoms: C3_35  and  C5_36
REMARK   11  A    between atoms: C8_39  and  C11_40
REMARK   12  A    between atoms: C1_44  and  C4_45
REMARK   13  A    between atoms: S1_53  and  C15_54
REMARK   14  A    between atoms: S1_53  and  N3_76
REMARK   15  A    between atoms: C12_57  and  N2_60
REMARK   16  A    between atoms: C3_61  and  C5_62
REMARK   17  A    between atoms: C8_65  and  C11_66
REMARK   18  A    between atoms: C1_70  and  C4_71
REMARK   19  A    between atoms: S1_79  and  C15_80
REMARK   20  A    between atoms: S1_79  and  N3_102
REMARK   21  A    between atoms: C12_83  and  N2_86
REMARK   22  A    between atoms: C3_87  and  C5_88
REMARK   23  A    between atoms: C8_91  and  C11_92
REMARK   24  A    between atoms: C1_96  and  C4_97
REMARK                            x       y       z     vdW  Elec       q    Type
REMARK                         _______ _______ _______ _____ _____    ______ ____
ROOT
ATOM      1  N2  CEL A 682      31.724 -22.006 -17.132  0.00  0.00    -0.230 N 
ATOM      2  C3  CEL A 682      32.622 -22.574 -16.260  0.00  0.00    +0.084 A 
ATOM      3  C2  CEL A 682      33.843 -22.337 -16.837  0.00  0.00    +0.044 A 
ATOM      4  C1  CEL A 682      33.589 -21.637 -18.031  0.00  0.00    +0.174 A 
ATOM      5  N1  CEL A 682      32.290 -21.424 -18.201  0.00  0.00    -0.161 NA
ENDROOT
BRANCH   2   6
ATOM      6  C5  CEL A 682      32.417 -23.237 -14.985  0.00  0.00    +0.018 A 
ATOM      7  C10 CEL A 682      31.570 -22.735 -14.016  0.00  0.00    +0.001 A 
ATOM      8  C9  CEL A 682      31.446 -23.390 -12.819  0.00  0.00    -0.004 A 
ATOM      9  C8  CEL A 682      32.170 -24.541 -12.587  0.00  0.00    -0.022 A 
ATOM     10  C11 CEL A 682      32.056 -25.290 -11.306  0.00  0.00    +0.031 C 
ATOM     11  C7  CEL A 682      33.023 -25.030 -13.549  0.00  0.00    -0.004 A 
ATOM     12  C6  CEL A 682      33.152 -24.373 -14.743  0.00  0.00    +0.001 A 
ENDBRANCH   2   6
BRANCH   1  16
ATOM     13  C15 CEL A 682      27.679 -21.706 -17.131  0.00  0.00    +0.125 A 
ATOM     14  C14 CEL A 682      28.218 -22.829 -16.556  0.00  0.00    +0.022 A 
ATOM     15  C13 CEL A 682      29.584 -22.964 -16.543  0.00  0.00    +0.021 A 
ATOM     16  C12 CEL A 682      30.341 -21.967 -17.109  0.00  0.00    +0.083 A 
ATOM     17  C17 CEL A 682      29.796 -20.853 -17.697  0.00  0.00    +0.021 A 
ATOM     18  C16 CEL A 682      28.434 -20.714 -17.707  0.00  0.00    +0.022 A 
BRANCH  13  19
ATOM     19  S1  CEL A 682      25.931 -21.467 -17.155  0.00  0.00    +0.093 S 
ATOM     20  O2  CEL A 682      25.772 -20.039 -17.291  0.00  0.00    -0.150 OA
ATOM     21  O1  CEL A 682      25.436 -22.106 -15.949  0.00  0.00    -0.150 OA
BRANCH  19  22
ATOM     22  N3  CEL A 682      25.378 -22.226 -18.605  0.00  0.00    +0.039 NA
ATOM     23  H   CEL A 682      25.758 -21.733 -19.413  0.00  0.00    +0.000 HD
ATOM     24  H   CEL A 682      24.359 -22.196 -18.637  0.00  0.00    +0.000 HD
ENDBRANCH  19  22
ENDBRANCH  13  19
ENDBRANCH   1  16
BRANCH   4  25
ATOM     25  C4  CEL A 682      34.554 -21.135 -19.002  0.00  0.00    +0.437 C 
ATOM     26  F3  CEL A 682      34.560 -21.752 -20.210  0.00  0.00    -0.164 F 
ATOM     27  F2  CEL A 682      34.302 -19.828 -19.223  0.00  0.00    -0.164 F 
ATOM     28  F1  CEL A 682      35.816 -21.214 -18.544  0.00  0.00    -0.164 F 
ENDBRANCH   4  25
TORSDOF 5
REMARK  Name = D:\Andy\Inflam_NP\Docking_InFlam\Processed_CoCrystal\temp_ligand.pdb
REMARK  24 active torsions:
REMARK  status: ('A' for Active; 'I' for Inactive)
REMARK    1  A    between atoms: S1_1  and  C15_2
REMARK    2  A    between atoms: S1_1  and  N3_24
REMARK    3  A    between atoms: C12_5  and  N2_8
REMARK    4  A    between atoms: C3_9  and  C5_10
REMARK    5  A    between atoms: C8_13  and  C11_14
REMARK    6  A    between atoms: C1_18  and  C4_19
REMARK    7  A    between atoms: S1_27  and  C15_28
REMARK    8  A    between atoms: S1_27  and  N3_50
REMARK    9  A    between atoms: C12_31  and  N2_34
REMARK   10  A    between atoms: C3_35  and  C5_36
REMARK   11  A    between atoms: C8_39  and  C11_40
REMARK   12  A    between atoms: C1_44  and  C4_45
REMARK   13  A    between atoms: S1_53  and  C15_54
REMARK   14  A    between atoms: S1_53  and  N3_76
REMARK   15  A    between atoms: C12_57  and  N2_60
REMARK   16  A    between atoms: C3_61  and  C5_62
REMARK   17  A    between atoms: C8_65  and  C11_66
REMARK   18  A    between atoms: C1_70  and  C4_71
REMARK   19  A    between atoms: S1_79  and  C15_80
REMARK   20  A    between atoms: S1_79  and  N3_102
REMARK   21  A    between atoms: C12_83  and  N2_86
REMARK   22  A    between atoms: C3_87  and  C5_88
REMARK   23  A    between atoms: C8_91  and  C11_92
REMARK   24  A    between atoms: C1_96  and  C4_97
REMARK                            x       y       z     vdW  Elec       q    Type
REMARK                         _______ _______ _______ _____ _____    ______ ____
ROOT
ATOM      1  N2  CEL B 682      76.616 -13.913  -8.309  0.00  0.00    -0.230 N 
ATOM      2  C3  CEL B 682      75.717 -14.793  -7.758  0.00  0.00    +0.084 A 
ATOM      3  C2  CEL B 682      74.487 -14.223  -7.959  0.00  0.00    +0.044 A 
ATOM      4  C1  CEL B 682      74.724 -13.005  -8.617  0.00  0.00    +0.174 A 
ATOM      5  N1  CEL B 682      76.026 -12.830  -8.837  0.00  0.00    -0.161 NA
ENDROOT
BRANCH   2   6
ATOM      6  C5  CEL B 682      75.907 -16.099  -7.177  0.00  0.00    +0.018 A 
ATOM      7  C10 CEL B 682      76.771 -17.017  -7.724  0.00  0.00    +0.001 A 
ATOM      8  C9  CEL B 682      76.838 -18.300  -7.226  0.00  0.00    -0.004 A 
ATOM      9  C8  CEL B 682      76.036 -18.689  -6.171  0.00  0.00    -0.022 A 
ATOM     10  C11 CEL B 682      76.100 -20.084  -5.633  0.00  0.00    +0.031 C 
ATOM     11  C7  CEL B 682      75.186 -17.759  -5.620  0.00  0.00    -0.004 A 
ATOM     12  C6  CEL B 682      75.114 -16.487  -6.132  0.00  0.00    +0.001 A 
ENDBRANCH   2   6
BRANCH   1  16
ATOM     13  C15 CEL B 682      80.722 -14.099  -8.669  0.00  0.00    +0.125 A 
ATOM     14  C14 CEL B 682      80.140 -14.716  -7.591  0.00  0.00    +0.022 A 
ATOM     15  C13 CEL B 682      78.770 -14.655  -7.463  0.00  0.00    +0.021 A 
ATOM     16  C12 CEL B 682      78.015 -13.990  -8.405  0.00  0.00    +0.083 A 
ATOM     17  C17 CEL B 682      78.606 -13.368  -9.481  0.00  0.00    +0.021 A 
ATOM     18  C16 CEL B 682      79.976 -13.425  -9.612  0.00  0.00    +0.022 A 
BRANCH  13  19
ATOM     19  S1  CEL B 682      82.490 -14.168  -8.858  0.00  0.00    +0.093 S 
ATOM     20  O2  CEL B 682      82.716 -13.941 -10.277  0.00  0.00    -0.150 OA
ATOM     21  O1  CEL B 682      82.981 -15.325  -8.117  0.00  0.00    -0.150 OA
BRANCH  19  22
ATOM     22  N3  CEL B 682      82.942 -12.756  -8.003  0.00  0.00    +0.039 NA
ATOM     23  H   CEL B 682      82.608 -11.933  -8.505  0.00  0.00    +0.000 HD
ATOM     24  H   CEL B 682      83.958 -12.717  -7.924  0.00  0.00    +0.000 HD
ENDBRANCH  19  22
ENDBRANCH  13  19
ENDBRANCH   1  16
BRANCH   4  25
ATOM     25  C4  CEL B 682      73.725 -12.018  -9.066  0.00  0.00    +0.437 C 
ATOM     26  F3  CEL B 682      72.764 -11.739  -8.157  0.00  0.00    -0.164 F 
ATOM     27  F2  CEL B 682      74.268 -10.812  -9.317  0.00  0.00    -0.164 F 
ATOM     28  F1  CEL B 682      73.087 -12.449 -10.189  0.00  0.00    -0.164 F 
ENDBRANCH   4  25
TORSDOF 5
REMARK  Name = D:\Andy\Inflam_NP\Docking_InFlam\Processed_CoCrystal\temp_ligand.pdb
REMARK  24 active torsions:
REMARK  status: ('A' for Active; 'I' for Inactive)
REMARK    1  A    between atoms: S1_1  and  C15_2
REMARK    2  A    between atoms: S1_1  and  N3_24
REMARK    3  A    between atoms: C12_5  and  N2_8
REMARK    4  A    between atoms: C3_9  and  C5_10
REMARK    5  A    between atoms: C8_13  and  C11_14
REMARK    6  A    between atoms: C1_18  and  C4_19
REMARK    7  A    between atoms: S1_27  and  C15_28
REMARK    8  A    between atoms: S1_27  and  N3_50
REMARK    9  A    between atoms: C12_31  and  N2_34
REMARK   10  A    between atoms: C3_35  and  C5_36
REMARK   11  A    between atoms: C8_39  and  C11_40
REMARK   12  A    between atoms: C1_44  and  C4_45
REMARK   13  A    between atoms: S1_53  and  C15_54
REMARK   14  A    between atoms: S1_53  and  N3_76
REMARK   15  A    between atoms: C12_57  and  N2_60
REMARK   16  A    between atoms: C3_61  and  C5_62
REMARK   17  A    between atoms: C8_65  and  C11_66
REMARK   18  A    between atoms: C1_70  and  C4_71
REMARK   19  A    between atoms: S1_79  and  C15_80
REMARK   20  A    between atoms: S1_79  and  N3_102
REMARK   21  A    between atoms: C12_83  and  N2_86
REMARK   22  A    between atoms: C3_87  and  C5_88
REMARK   23  A    between atoms: C8_91  and  C11_92
REMARK   24  A    between atoms: C1_96  and  C4_97
REMARK                            x       y       z     vdW  Elec       q    Type
REMARK                         _______ _______ _______ _____ _____    ______ ____
ROOT
ATOM      1  N2  CEL C 682      64.512 -45.512  44.669  0.00  0.00    -0.230 N 
ATOM      2  C3  CEL C 682      63.624 -45.084  45.626  0.00  0.00    +0.084 A 
ATOM      3  C2  CEL C 682      62.375 -45.378  45.141  0.00  0.00    +0.044 A 
ATOM      4  C1  CEL C 682      62.590 -45.972  43.888  0.00  0.00    +0.174 A 
ATOM      5  N1  CEL C 682      63.892 -46.052  43.604  0.00  0.00    -0.161 NA
ENDROOT
BRANCH   2   6
ATOM      6  C5  CEL C 682      63.858 -44.436  46.886  0.00  0.00    +0.018 A 
ATOM      7  C10 CEL C 682      64.695 -44.939  47.852  0.00  0.00    +0.001 A 
ATOM      8  C9  CEL C 682      64.824 -44.281  49.059  0.00  0.00    -0.004 A 
ATOM      9  C8  CEL C 682      64.119 -43.123  49.306  0.00  0.00    -0.022 A 
ATOM     10  C11 CEL C 682      64.248 -42.405  50.604  0.00  0.00    +0.031 C 
ATOM     11  C7  CEL C 682      63.286 -42.628  48.333  0.00  0.00    -0.004 A 
ATOM     12  C6  CEL C 682      63.151 -43.285  47.134  0.00  0.00    +0.001 A 
ENDBRANCH   2   6
BRANCH   1  16
ATOM     13  C15 CEL C 682      68.582 -46.056  44.772  0.00  0.00    +0.125 A 
ATOM     14  C14 CEL C 682      68.064 -44.929  45.353  0.00  0.00    +0.022 A 
ATOM     15  C13 CEL C 682      66.703 -44.742  45.330  0.00  0.00    +0.021 A 
ATOM     16  C12 CEL C 682      65.902 -45.676  44.728  0.00  0.00    +0.083 A 
ATOM     17  C17 CEL C 682      66.430 -46.806  44.147  0.00  0.00    +0.021 A 
ATOM     18  C16 CEL C 682      67.789 -47.003  44.169  0.00  0.00    +0.022 A 
BRANCH  13  19
ATOM     19  S1  CEL C 682      70.335 -46.315  44.787  0.00  0.00    +0.093 S 
ATOM     20  O2  CEL C 682      70.847 -45.722  43.556  0.00  0.00    -0.150 OA
ATOM     21  O1  CEL C 682      70.468 -47.730  45.034  0.00  0.00    -0.150 OA
BRANCH  19  22
ATOM     22  N3  CEL C 682      70.918 -45.393  46.073  0.00  0.00    +0.039 NA
ATOM     23  H   CEL C 682      70.806 -44.402  45.859  0.00  0.00    +0.000 HD
ATOM     24  H   CEL C 682      71.906 -45.600  46.219  0.00  0.00    +0.000 HD
ENDBRANCH  19  22
ENDBRANCH  13  19
ENDBRANCH   1  16
BRANCH   4  25
ATOM     25  C4  CEL C 682      61.561 -46.458  42.962  0.00  0.00    +0.437 C 
ATOM     26  F3  CEL C 682      60.339 -45.884  43.165  0.00  0.00    -0.164 F 
ATOM     27  F2  CEL C 682      61.875 -46.256  41.653  0.00  0.00    -0.164 F 
ATOM     28  F1  CEL C 682      61.422 -47.787  43.164  0.00  0.00    -0.164 F 
ENDBRANCH   4  25
TORSDOF 5
REMARK  Name = D:\Andy\Inflam_NP\Docking_InFlam\Processed_CoCrystal\temp_ligand.pdb
REMARK  24 active torsions:
REMARK  status: ('A' for Active; 'I' for Inactive)
REMARK    1  A    between atoms: S1_1  and  C15_2
REMARK    2  A    between atoms: S1_1  and  N3_24
REMARK    3  A    between atoms: C12_5  and  N2_8
REMARK    4  A    between atoms: C3_9  and  C5_10
REMARK    5  A    between atoms: C8_13  and  C11_14
REMARK    6  A    between atoms: C1_18  and  C4_19
REMARK    7  A    between atoms: S1_27  and  C15_28
REMARK    8  A    between atoms: S1_27  and  N3_50
REMARK    9  A    between atoms: C12_31  and  N2_34
REMARK   10  A    between atoms: C3_35  and  C5_36
REMARK   11  A    between atoms: C8_39  and  C11_40
REMARK   12  A    between atoms: C1_44  and  C4_45
REMARK   13  A    between atoms: S1_53  and  C15_54
REMARK   14  A    between atoms: S1_53  and  N3_76
REMARK   15  A    between atoms: C12_57  and  N2_60
REMARK   16  A    between atoms: C3_61  and  C5_62
REMARK   17  A    between atoms: C8_65  and  C11_66
REMARK   18  A    between atoms: C1_70  and  C4_71
REMARK   19  A    between atoms: S1_79  and  C15_80
REMARK   20  A    between atoms: S1_79  and  N3_102
REMARK   21  A    between atoms: C12_83  and  N2_86
REMARK   22  A    between atoms: C3_87  and  C5_88
REMARK   23  A    between atoms: C8_91  and  C11_92
REMARK   24  A    between atoms: C1_96  and  C4_97
REMARK                            x       y       z     vdW  Elec       q    Type
REMARK                         _______ _______ _______ _____ _____    ______ ____
ROOT
ATOM      1  N2  CEL D 682      19.638 -53.604  53.633  0.00  0.00    -0.230 N 
ATOM      2  C3  CEL D 682      20.520 -52.713  54.175  0.00  0.00    +0.084 A 
ATOM      3  C2  CEL D 682      21.750 -53.294  53.990  0.00  0.00    +0.044 A 
ATOM      4  C1  CEL D 682      21.516 -54.517  53.340  0.00  0.00    +0.174 A 
ATOM      5  N1  CEL D 682      20.223 -54.685  53.101  0.00  0.00    -0.161 NA
ENDROOT
BRANCH   2   6
ATOM      6  C5  CEL D 682      20.249 -51.394  54.715  0.00  0.00    +0.018 A 
ATOM      7  C10 CEL D 682      19.439 -50.510  54.029  0.00  0.00    +0.001 A 
ATOM      8  C9  CEL D 682      19.255 -49.220  54.480  0.00  0.00    -0.004 A 
ATOM      9  C8  CEL D 682      19.894 -48.811  55.627  0.00  0.00    -0.022 A 
ATOM     10  C11 CEL D 682      19.719 -47.439  56.133  0.00  0.00    +0.031 C 
ATOM     11  C7  CEL D 682      20.693 -49.688  56.322  0.00  0.00    -0.004 A 
ATOM     12  C6  CEL D 682      20.881 -50.972  55.860  0.00  0.00    +0.001 A 
ENDBRANCH   2   6
BRANCH   1  16
ATOM     13  C15 CEL D 682      15.543 -53.504  53.278  0.00  0.00    +0.125 A 
ATOM     14  C14 CEL D 682      16.128 -52.852  54.338  0.00  0.00    +0.022 A 
ATOM     15  C13 CEL D 682      17.495 -52.873  54.485  0.00  0.00    +0.021 A 
ATOM     16  C12 CEL D 682      18.249 -53.545  53.558  0.00  0.00    +0.083 A 
ATOM     17  C17 CEL D 682      17.666 -54.203  52.502  0.00  0.00    +0.021 A 
ATOM     18  C16 CEL D 682      16.298 -54.183  52.358  0.00  0.00    +0.022 A 
BRANCH  13  19
ATOM     19  S1  CEL D 682      13.772 -53.472  53.078  0.00  0.00    +0.093 S 
ATOM     20  O2  CEL D 682      13.474 -53.691  51.679  0.00  0.00    -0.150 OA
ATOM     21  O1  CEL D 682      13.318 -52.278  53.778  0.00  0.00    -0.150 OA
BRANCH  19  22
ATOM     22  N3  CEL D 682      13.227 -54.846  53.953  0.00  0.00    +0.039 NA
ATOM     23  H   CEL D 682      13.535 -55.695  53.479  0.00  0.00    +0.000 HD
ATOM     24  H   CEL D 682      12.208 -54.835  54.003  0.00  0.00    +0.000 HD
ENDBRANCH  19  22
ENDBRANCH  13  19
ENDBRANCH   1  16
BRANCH   4  25
ATOM     25  C4  CEL D 682      22.477 -55.520  52.852  0.00  0.00    +0.437 C 
ATOM     26  F3  CEL D 682      23.758 -55.267  53.207  0.00  0.00    -0.164 F 
ATOM     27  F2  CEL D 682      22.194 -56.812  53.151  0.00  0.00    -0.164 F 
ATOM     28  F1  CEL D 682      22.489 -55.485  51.496  0.00  0.00    -0.164 F 
ENDBRANCH   4  25
TORSDOF 5
