REMARK  Name = 
REMARK  7 active torsions:
REMARK  status: ('A' for Active; 'I' for Inactive)
REMARK    1  A    between atoms: C_1  and  C_2
REMARK    2  A    between atoms: C_4  and  C_5
REMARK    3  A    between atoms: C_5  and  C_6
REMARK    4  A    between atoms: C_5  and  O_7
REMARK    5  A    between atoms: C_5  and  C_8
REMARK    6  A    between atoms: C_9  and  C_10
REMARK    7  A    between atoms: C_14  and  C_15
REMARK                            x       y       z     vdW  Elec       q    Type
REMARK                         _______ _______ _______ _____ _____    ______ ____
ROOT
ATOM      1  C   UNL     1       0.162   6.362  -3.446  0.00  0.00    +0.000 A 
ATOM      2  C   UNL     1      -0.828   7.389  -3.243  0.00  0.00    +0.000 A 
ATOM      3  C   UNL     1      -1.221   7.755  -1.907  0.00  0.00    +0.000 A 
ATOM      4  C   UNL     1      -2.211   8.782  -1.704  0.00  0.00    +0.000 A 
ATOM      5  C   UNL     1      -2.605   9.148  -0.368  0.00  0.00    +0.000 A 
ATOM      6  C   UNL     1       0.556   5.996  -4.782  0.00  0.00    +0.000 A 
ENDROOT
BRANCH   5   7
ATOM      7  C   UNL     1      -1.976   8.451   0.828  0.00  0.00    +0.000 A 
ATOM      8  C   UNL     1      -2.369   8.818   2.164  0.00  0.00    +0.000 A 
ATOM      9  N   UNL     1      -3.327   9.810   2.361  0.00  0.00    +0.000 N 
ATOM     10  C   UNL     1      -3.707  10.165   3.653  0.00  0.00    +0.000 A 
ATOM     11  C   UNL     1      -3.111   9.505   4.785  0.00  0.00    +0.000 A 
ATOM     12  N   UNL     1      -2.154   8.512   4.589  0.00  0.00    +0.000 NA
ATOM     13  C   UNL     1      -1.773   8.158   3.297  0.00  0.00    +0.000 A 
ATOM     14  N   UNL     1      -2.382   8.831   2.141  0.00  0.00    +0.000 N 
ATOM     15  N   UNL     1      -0.816   7.165   3.100  0.00  0.00    +0.000 NA
ATOM     16  C   UNL     1      -4.697  11.191   3.856  0.00  0.00    +0.000 A 
ATOM     17  H   UNL     1      -3.749  10.278   1.558  0.00  0.00    +0.000 HD
ATOM     18  H   UNL     1      -2.103   8.572   1.194  0.00  0.00    +0.000 HD
ATOM     19  H   UNL     1      -3.083   9.558   2.284  0.00  0.00    +0.000 HD
ENDBRANCH   5   7
BRANCH   1  21
ATOM     20  C   UNL     1       1.331   5.068  -1.225  0.00  0.00    +0.000 C 
ATOM     21  C   UNL     1       0.791   5.666  -2.250  0.00  0.00    +0.000 C 
BRANCH  20  22
ATOM     22  C   UNL     1       1.960   4.372  -0.029  0.00  0.00    +0.000 C 
ATOM     23  C   UNL     1       1.445   5.003   1.254  0.00  0.00    +0.000 C 
BRANCH  22  27
ATOM     24  C   UNL     1       0.923   0.054  -0.035  0.00  0.00    +0.000 C 
ATOM     25  C   UNL     1       0.417   0.979  -1.129  0.00  0.00    +0.000 A 
ATOM     26  C   UNL     1       0.765   2.377  -1.108  0.00  0.00    +0.000 A 
ATOM     27  C   UNL     1       1.593   2.897  -0.051  0.00  0.00    +0.000 A 
ATOM     28  N   UNL     1       2.057   2.049   0.951  0.00  0.00    +0.000 NA
ATOM     29  O   UNL     1      -0.357   0.493  -2.117  0.00  0.00    +0.000 OA
ENDBRANCH  22  27
BRANCH  22  30
ATOM     30  O   UNL     1       3.372   4.509  -0.090  0.00  0.00    +0.000 OA
ATOM     31  H   UNL     1       3.786   4.051   0.696  0.00  0.00    +0.000 HD
ENDBRANCH  22  30
ENDBRANCH  20  22
ENDBRANCH   1  21
TORSDOF 5
