REMARK  Name = 
REMARK  12 active torsions:
REMARK  status: ('A' for Active; 'I' for Inactive)
REMARK    1  A    between atoms: C_1  and  O_2
REMARK    2  A    between atoms: O_2  and  C_3
REMARK    3  A    between atoms: C_5  and  C_6
REMARK    4  A    between atoms: C_6  and  O_7
REMARK    5  A    between atoms: C_6  and  C_8
REMARK    6  A    between atoms: C_8  and  C_9
REMARK    7  A    between atoms: C_8  and  C_11
REMARK    8  A    between atoms: C_9  and  O_10
REMARK    9  A    between atoms: C_14  and  O_15
REMARK   10  A    between atoms: C_16  and  O_17
REMARK   11  A    between atoms: O_17  and  C_18
REMARK   12  A    between atoms: C_22  and  O_23
REMARK                            x       y       z     vdW  Elec       q    Type
REMARK                         _______ _______ _______ _____ _____    ______ ____
ROOT
ATOM      1  C   UNL     1      -2.496   0.998   5.312  0.00  0.00    +0.000 C 
ENDROOT
BRANCH   1   2
ATOM      2  C   UNL     1      -3.002   1.276   6.718  0.00  0.00    +0.000 A 
ATOM      3  C   UNL     1      -2.654   0.388   7.797  0.00  0.00    +0.000 A 
ATOM      4  C   UNL     1      -1.826  -0.763   7.544  0.00  0.00    +0.000 A 
ATOM      5  C   UNL     1      -1.478  -1.651   8.623  0.00  0.00    +0.000 A 
ATOM      6  C   UNL     1      -1.958  -1.389   9.955  0.00  0.00    +0.000 A 
ATOM      7  C   UNL     1      -3.830   2.427   6.971  0.00  0.00    +0.000 A 
BRANCH   5   8
ATOM      8  O   UNL     1      -0.662  -2.786   8.373  0.00  0.00    +0.000 OA
ATOM      9  H   UNL     1      -0.329  -2.969   7.448  0.00  0.00    +0.000 HD
ENDBRANCH   5   8
BRANCH   6  10
ATOM     10  O   UNL     1      -1.615  -2.264  11.019  0.00  0.00    +0.000 OA
ATOM     11  C   UNL     1      -2.089  -2.005  12.332  0.00  0.00    +0.000 C 
ENDBRANCH   6  10
ENDBRANCH   1   2
BRANCH   1  12
ATOM     12  C   UNL     1      -0.976   0.998   5.312  0.00  0.00    +0.000 C 
BRANCH  12  15
ATOM     13  C   UNL     1       0.839  -0.693   2.321  0.00  0.00    +0.000 A 
ATOM     14  C   UNL     1       0.359  -0.430   3.653  0.00  0.00    +0.000 A 
ATOM     15  C   UNL     1      -0.469   0.721   3.906  0.00  0.00    +0.000 A 
ATOM     16  C   UNL     1      -0.817   1.609   2.827  0.00  0.00    +0.000 A 
ATOM     17  C   UNL     1      -0.337   1.346   1.495  0.00  0.00    +0.000 A 
ATOM     18  C   UNL     1       1.667  -1.844   2.068  0.00  0.00    +0.000 A 
BRANCH  13  20
ATOM     19  C   UNL     1       0.969  -0.076  -0.057  0.00  0.00    +0.000 C 
ATOM     20  O   UNL     1       0.496   0.183   1.257  0.00  0.00    +0.000 OA
ENDBRANCH  13  20
BRANCH  18  21
ATOM     21  O   UNL     1       2.140  -2.103   0.754  0.00  0.00    +0.000 OA
ATOM     22  H   UNL     1       2.715  -2.902   0.578  0.00  0.00    +0.000 HD
ENDBRANCH  18  21
ENDBRANCH  12  15
BRANCH  12  23
ATOM     23  O   UNL     1      -0.502   2.265   5.744  0.00  0.00    +0.000 OA
ATOM     24  H   UNL     1       0.498   2.265   5.744  0.00  0.00    +0.000 HD
ENDBRANCH  12  23
ENDBRANCH   1  12
BRANCH   1  25
ATOM     25  C   UNL     1      -3.002  -0.358   4.849  0.00  0.00    +0.000 C 
BRANCH  25  26
ATOM     26  O   UNL     1      -2.529  -1.366   5.730  0.00  0.00    +0.000 OA
ATOM     27  H   UNL     1      -1.529  -1.366   5.730  0.00  0.00    +0.000 HD
ENDBRANCH  25  26
ENDBRANCH   1  25
TORSDOF 10
