REMARK  Name = 
REMARK  9 active torsions:
REMARK  status: ('A' for Active; 'I' for Inactive)
REMARK    1  A    between atoms: C_1  and  C_2
REMARK    2  A    between atoms: C_2  and  C_3
REMARK    3  A    between atoms: C_2  and  C_18
REMARK    4  A    between atoms: N_5  and  C_6
REMARK    5  A    between atoms: C_6  and  C_7
REMARK    6  A    between atoms: C_7  and  C_8
REMARK    7  A    between atoms: C_11  and  S_12
REMARK    8  A    between atoms: S_12  and  N_13
REMARK    9  A    between atoms: C_21  and  C_22
REMARK                            x       y       z     vdW  Elec       q    Type
REMARK                         _______ _______ _______ _____ _____    ______ ____
ROOT
ATOM      1  C   UNL     1       0.920  -2.414  -0.759  0.00  0.00    +0.000 C 
ATOM      2  O   UNL     1       0.094  -3.354  -0.537  0.00  0.00    +0.000 OA
ATOM      3  N   UNL     1       2.365  -2.676  -0.697  0.00  0.00    +0.000 N 
ATOM      4  H   UNL     1       2.705  -3.611  -0.476  0.00  0.00    +0.000 HD
ENDROOT
BRANCH   1   6
ATOM      5  C   UNL     1       0.920  -0.036  -0.047  0.00  0.00    +0.000 C 
ATOM      6  C   UNL     1       0.413  -1.020  -1.090  0.00  0.00    +0.000 C 
BRANCH   6   7
ATOM      7  C   UNL     1      -1.107  -1.020  -1.090  0.00  0.00    +0.000 A 
ATOM      8  C   UNL     1      -1.827  -1.377   0.105  0.00  0.00    +0.000 A 
ATOM      9  C   UNL     1      -1.107  -1.735   1.300  0.00  0.00    +0.000 A 
ATOM     10  C   UNL     1      -1.827  -2.093   2.495  0.00  0.00    +0.000 A 
ATOM     11  C   UNL     1      -3.267  -2.093   2.495  0.00  0.00    +0.000 A 
ATOM     12  F   UNL     1      -3.932  -2.424   3.598  0.00  0.00    +0.000 F 
ATOM     13  C   UNL     1      -1.827  -0.662  -2.285  0.00  0.00    +0.000 A 
BRANCH  10  14
ATOM     14  C   UNL     1      -1.067  -2.471   3.756  0.00  0.00    +0.000 A 
ATOM     15  C   UNL     1       0.373  -2.471   3.756  0.00  0.00    +0.000 A 
ATOM     16  C   UNL     1       1.093  -2.113   2.561  0.00  0.00    +0.000 A 
ATOM     17  C   UNL     1       2.533  -2.113   2.561  0.00  0.00    +0.000 A 
ATOM     18  C   UNL     1       3.254  -1.755   1.366  0.00  0.00    +0.000 A 
ATOM     19  C   UNL     1      -1.787  -2.829   4.951  0.00  0.00    +0.000 A 
ENDBRANCH  10  14
ENDBRANCH   6   7
ENDBRANCH   1   6
BRANCH   3  20
ATOM     20  C   UNL     1       3.320  -1.588  -0.955  0.00  0.00    +0.000 C 
BRANCH  20  21
ATOM     21  C   UNL     1       4.194  -1.381   0.271  0.00  0.00    +0.000 C 
BRANCH  21  22
ATOM     22  C   UNL     1       4.954  -2.661   0.575  0.00  0.00    +0.000 A 
ATOM     23  C   UNL     1       4.234  -3.875   0.862  0.00  0.00    +0.000 A 
ATOM     24  C   UNL     1       2.794  -3.875   0.862  0.00  0.00    +0.000 A 
ATOM     25  C   UNL     1       2.074  -5.089   1.150  0.00  0.00    +0.000 A 
ATOM     26  C   UNL     1       2.794  -6.302   1.437  0.00  0.00    +0.000 A 
ATOM     27  C   UNL     1       6.394  -2.661   0.575  0.00  0.00    +0.000 A 
BRANCH  25  28
ATOM     28  S   UNL     1       0.264  -5.089   1.150  0.00  0.00    +0.000 S 
ATOM     29  O   UNL     1      -0.246  -5.503   2.532  0.00  0.00    +0.000 OA
ATOM     30  O   UNL     1      -0.246  -3.685   0.817  0.00  0.00    +0.000 OA
BRANCH  28  31
ATOM     31  N   UNL     1      -0.323  -6.227  -0.057  0.00  0.00    +0.000 NA
ATOM     32  H   UNL     1      -1.343  -6.227  -0.057  0.00  0.00    +0.000 HD
ATOM     33  H   UNL     1       0.017  -5.951  -0.979  0.00  0.00    +0.000 HD
ENDBRANCH  28  31
ENDBRANCH  25  28
ENDBRANCH  21  22
ENDBRANCH  20  21
ENDBRANCH   3  20
TORSDOF 8
