REMARK  Name = 
REMARK  7 active torsions:
REMARK  status: ('A' for Active; 'I' for Inactive)
REMARK    1  A    between atoms: C_1  and  C_2
REMARK    2  A    between atoms: N_4  and  C_5
REMARK    3  A    between atoms: N_8  and  C_9
REMARK    4  A    between atoms: C_9  and  C_10
REMARK    5  A    between atoms: C_10  and  C_11
REMARK    6  A    between atoms: C_14  and  O_15
REMARK    7  A    between atoms: O_15  and  C_16
REMARK                            x       y       z     vdW  Elec       q    Type
REMARK                         _______ _______ _______ _____ _____    ______ ____
ROOT
ATOM      1  C   UNL     1      -1.375   0.007   0.910  0.00  0.00    +0.000 A 
ATOM      2  C   UNL     1      -0.133   0.392   0.291  0.00  0.00    +0.000 A 
ATOM      3  C   UNL     1       0.389   1.719   0.489  0.00  0.00    +0.000 A 
ATOM      4  C   UNL     1       1.631   2.104  -0.131  0.00  0.00    +0.000 A 
ATOM      5  C   UNL     1       2.351   1.162  -0.947  0.00  0.00    +0.000 A 
ATOM      6  C   UNL     1      -1.897  -1.321   0.713  0.00  0.00    +0.000 A 
ENDROOT
BRANCH   1   7
ATOM      7  C   UNL     1      -2.135   1.002   1.772  0.00  0.00    +0.000 C 
BRANCH   7   8
ATOM      8  C   UNL     1      -1.261   1.432   2.939  0.00  0.00    +0.000 C 
BRANCH   8  12
ATOM      9  C   UNL     1       1.636   2.897   0.228  0.00  0.00    +0.000 C 
ATOM     10  C   UNL     1       0.876   3.892   1.090  0.00  0.00    +0.000 C 
ATOM     11  C   UNL     1      -0.391   3.240   1.620  0.00  0.00    +0.000 C 
ATOM     12  N   UNL     1      -0.036   2.063   2.427  0.00  0.00    +0.000 NA
ATOM     13  C   UNL     1       0.699   1.101   1.593  0.00  0.00    +0.000 C 
ATOM     14  C   UNL     1       2.902   3.549  -0.301  0.00  0.00    +0.000 C 
BRANCH   9  18
ATOM     15  C   UNL     1       0.942   0.030  -0.076  0.00  0.00    +0.000 C 
ATOM     16  C   UNL     1       0.435   1.064  -1.068  0.00  0.00    +0.000 C 
ATOM     17  O   UNL     1      -0.295   0.703  -2.044  0.00  0.00    +0.000 OA
ATOM     18  N   UNL     1       0.791   2.480  -0.900  0.00  0.00    +0.000 N 
ATOM     19  H   UNL     1       0.451   3.174  -1.566  0.00  0.00    +0.000 HD
ENDBRANCH   9  18
ENDBRANCH   8  12
ENDBRANCH   7   8
ENDBRANCH   1   7
BRANCH   4  20
ATOM     20  O   UNL     1       2.146   3.413   0.064  0.00  0.00    +0.000 OA
BRANCH  20  21
ATOM     21  C   UNL     1       1.436   4.343   0.869  0.00  0.00    +0.000 A 
ATOM     22  N   UNL     1       1.940   5.627   1.060  0.00  0.00    +0.000 NA
ATOM     23  C   UNL     1       1.244   6.539   1.850  0.00  0.00    +0.000 A 
ATOM     24  C   UNL     1       1.766   7.866   2.048  0.00  0.00    +0.000 A 
ATOM     25  C   UNL     1       3.008   8.251   1.428  0.00  0.00    +0.000 A 
ATOM     26  C   UNL     1       3.530   9.579   1.626  0.00  0.00    +0.000 A 
ATOM     27  C   UNL     1       4.772   9.964   1.007  0.00  0.00    +0.000 A 
ATOM     28  C   UNL     1       0.002   6.154   2.469  0.00  0.00    +0.000 A 
ATOM     29  S   UNL     1      -0.043   3.884   1.607  0.00  0.00    +0.000 S 
ENDBRANCH  20  21
ENDBRANCH   4  20
TORSDOF 6
