REMARK  Name = 
REMARK  4 active torsions:
REMARK  status: ('A' for Active; 'I' for Inactive)
REMARK    1  A    between atoms: C_1  and  O_2
REMARK    2  A    between atoms: O_2  and  C_3
REMARK    3  A    between atoms: C_5  and  C_6
REMARK    4  A    between atoms: C_17  and  O_18
REMARK                            x       y       z     vdW  Elec       q    Type
REMARK                         _______ _______ _______ _____ _____    ______ ____
ROOT
ATOM      1  C   UNL     1       0.920   2.375  -0.480  0.00  0.00    +0.000 A 
ATOM      2  C   UNL     1       0.440   3.430  -1.334  0.00  0.00    +0.000 A 
ATOM      3  C   UNL     1      -0.388   3.117  -2.470  0.00  0.00    +0.000 A 
ATOM      4  C   UNL     1      -0.736   1.748  -2.752  0.00  0.00    +0.000 A 
ATOM      5  C   UNL     1      -0.255   0.692  -1.897  0.00  0.00    +0.000 A 
ATOM      6 CL   UNL     1       0.768   1.080  -0.493  0.00  0.00    +0.000 Cl
ATOM      7  C   UNL     1       1.748   2.688   0.656  0.00  0.00    +0.000 A 
ENDROOT
BRANCH   3   8
ATOM      8  C   UNL     1      -0.894   4.231  -3.371  0.00  0.00    +0.000 C 
ATOM      9  C   UNL     1      -1.676   3.935  -4.444  0.00  0.00    +0.000 C 
ATOM     10  S   UNL     1      -2.114   2.214  -4.798  0.00  0.00    +0.000 S 
ATOM     11  C   UNL     1      -3.154   2.149  -6.278  0.00  0.00    +0.000 C 
ATOM     12  N   UNL     1      -3.509   3.389  -6.982  0.00  0.00    +0.000 N 
ATOM     13  N   UNL     1      -3.593   0.991  -6.723  0.00  0.00    +0.000 NA
ATOM     14  C   UNL     1      -2.183   5.049  -5.346  0.00  0.00    +0.000 C 
ATOM     15  O   UNL     1      -1.876   6.257  -5.097  0.00  0.00    +0.000 OA
ATOM     16  H   UNL     1      -4.096   3.352  -7.816  0.00  0.00    +0.000 HD
ATOM     17  H   UNL     1      -3.169   4.287  -6.637  0.00  0.00    +0.000 HD
ENDBRANCH   3   8
BRANCH   1  19
ATOM     18  C   UNL     1       1.051  -0.016   0.085  0.00  0.00    +0.000 C 
ATOM     19  O   UNL     1       0.577   1.025  -0.757  0.00  0.00    +0.000 OA
ENDBRANCH   1  19
BRANCH   7  20
ATOM     20  O   UNL     1       2.222   1.647   1.499  0.00  0.00    +0.000 OA
ATOM     21  H   UNL     1       2.797   1.865   2.287  0.00  0.00    +0.000 HD
ENDBRANCH   7  20
TORSDOF 3
