REMARK  Name = 
REMARK  9 active torsions:
REMARK  status: ('A' for Active; 'I' for Inactive)
REMARK    1  A    between atoms: C_1  and  O_2
REMARK    2  A    between atoms: O_2  and  C_3
REMARK    3  A    between atoms: C_7  and  C_8
REMARK    4  A    between atoms: C_11  and  C_12
REMARK    5  A    between atoms: C_12  and  O_13
REMARK    6  A    between atoms: O_13  and  C_14
REMARK    7  A    between atoms: N_16  and  C_17
REMARK    8  A    between atoms: C_22  and  O_23
REMARK    9  A    between atoms: O_23  and  C_24
REMARK                            x       y       z     vdW  Elec       q    Type
REMARK                         _______ _______ _______ _____ _____    ______ ____
ROOT
ATOM      1  C   UNL     1      -2.056   5.496  -0.107  0.00  0.00    +0.000 A 
ATOM      2  C   UNL     1      -2.884   6.358  -0.910  0.00  0.00    +0.000 A 
ATOM      3  C   UNL     1      -3.364   7.604  -0.370  0.00  0.00    +0.000 A 
ATOM      4  C   UNL     1      -4.192   8.466  -1.173  0.00  0.00    +0.000 A 
ATOM      5  C   UNL     1      -4.540   8.082  -2.517  0.00  0.00    +0.000 A 
ATOM      6  C   UNL     1      -1.576   4.250  -0.648  0.00  0.00    +0.000 A 
ENDROOT
BRANCH   1  11
ATOM      7  C   UNL     1       0.927   1.685   1.837  0.00  0.00    +0.000 A 
ATOM      8  C   UNL     1       0.447   2.931   2.377  0.00  0.00    +0.000 A 
ATOM      9  C   UNL     1      -0.381   3.793   1.574  0.00  0.00    +0.000 A 
ATOM     10  C   UNL     1      -0.861   5.039   2.115  0.00  0.00    +0.000 A 
ATOM     11  C   UNL     1      -1.689   5.901   1.311  0.00  0.00    +0.000 A 
ATOM     12  C   UNL     1       1.755   0.823   2.640  0.00  0.00    +0.000 A 
BRANCH   7  14
ATOM     13  C   UNL     1       1.057   0.079  -0.021  0.00  0.00    +0.000 C 
ATOM     14  O   UNL     1       0.584   1.307   0.512  0.00  0.00    +0.000 OA
ENDBRANCH   7  14
BRANCH  12  15
ATOM     15  O   UNL     1       2.228  -0.405   2.107  0.00  0.00    +0.000 OA
ATOM     16  C   UNL     1       3.045  -1.255   2.899  0.00  0.00    +0.000 C 
ENDBRANCH  12  15
ENDBRANCH   1  11
BRANCH   4  17
ATOM     17  C   UNL     1      -4.699   9.780  -0.603  0.00  0.00    +0.000 C 
BRANCH  17  18
ATOM     18  O   UNL     1      -4.226  10.856  -1.400  0.00  0.00    +0.000 OA
BRANCH  18  19
ATOM     19  C   UNL     1      -2.806  10.856  -1.400  0.00  0.00    +0.000 C 
ATOM     20  C   UNL     1      -2.299   9.542  -1.970  0.00  0.00    +0.000 C 
ATOM     21  N   UNL     1      -2.789   9.384  -3.347  0.00  0.00    +0.000 N 
ATOM     22  C   UNL     1      -2.299  11.019   0.024  0.00  0.00    +0.000 C 
BRANCH  21  23
ATOM     23  C   UNL     1      -4.234   9.353  -3.614  0.00  0.00    +0.000 C 
ATOM     24  N   UNL     1      -5.474   9.327  -3.843  0.00  0.00    +0.000 NA
ENDBRANCH  21  23
ENDBRANCH  18  19
ENDBRANCH  17  18
ENDBRANCH   4  17
TORSDOF 7
