REMARK  Name = 
REMARK  13 active torsions:
REMARK  status: ('A' for Active; 'I' for Inactive)
REMARK    1  A    between atoms: C_1  and  O_2
REMARK    2  A    between atoms: O_2  and  C_3
REMARK    3  A    between atoms: C_7  and  C_8
REMARK    4  A    between atoms: C_7  and  C_13
REMARK    5  A    between atoms: C_8  and  C_9
REMARK    6  A    between atoms: C_10  and  C_11
REMARK    7  A    between atoms: C_10  and  C_12
REMARK    8  A    between atoms: C_13  and  C_14
REMARK    9  A    between atoms: C_15  and  C_16
REMARK   10  A    between atoms: C_15  and  C_17
REMARK   11  A    between atoms: C_21  and  O_22
REMARK   12  A    between atoms: C_21  and  C_23
REMARK   13  A    between atoms: C_24  and  C_25
REMARK                            x       y       z     vdW  Elec       q    Type
REMARK                         _______ _______ _______ _____ _____    ______ ____
ROOT
ATOM      1  C   UNL     1       0.943   0.603   2.409  0.00  0.00    +0.000 C 
ATOM      2  C   UNL     1       0.489   1.448   3.374  0.00  0.00    +0.000 C 
ATOM      3  C   UNL     1      -0.385   2.633   2.998  0.00  0.00    +0.000 C 
ATOM      4  O   UNL     1      -0.808   3.422   3.899  0.00  0.00    +0.000 OA
ATOM      5  C   UNL     1      -0.752   2.874   1.542  0.00  0.00    +0.000 C 
ATOM      6  C   UNL     1      -1.626   4.114   1.439  0.00  0.00    +0.000 C 
ATOM      7  O   UNL     1      -2.049   4.500   0.305  0.00  0.00    +0.000 OA
ATOM      8  C   UNL     1       1.817  -0.582   2.786  0.00  0.00    +0.000 C 
ATOM      9  C   UNL     1       2.270  -1.427   1.821  0.00  0.00    +0.000 C 
ENDROOT
BRANCH   1  11
ATOM     10  C   UNL     1       1.073  -0.053   0.043  0.00  0.00    +0.000 C 
ATOM     11  O   UNL     1       0.600   0.828   1.050  0.00  0.00    +0.000 OA
ENDBRANCH   1  11
BRANCH   9  12
ATOM     12  O   UNL     1       1.927  -1.202   0.462  0.00  0.00    +0.000 OA
ATOM     13  H   UNL     1       1.352  -0.422   0.214  0.00  0.00    +0.000 HD
ENDBRANCH   9  12
BRANCH   9  14
ATOM     14  C   UNL     1       3.144  -2.612   2.198  0.00  0.00    +0.000 C 
ATOM     15  C   UNL     1       3.473  -2.828   3.500  0.00  0.00    +0.000 C 
BRANCH  15  16
ATOM     16  C   UNL     1       4.347  -4.013   3.877  0.00  0.00    +0.000 A 
ATOM     17  C   UNL     1       4.827  -4.908   2.855  0.00  0.00    +0.000 A 
ATOM     18  C   UNL     1       4.479  -4.679   1.476  0.00  0.00    +0.000 A 
ATOM     19  C   UNL     1       4.959  -5.573   0.455  0.00  0.00    +0.000 A 
ATOM     20  C   UNL     1       4.611  -5.345  -0.924  0.00  0.00    +0.000 A 
ATOM     21  C   UNL     1       4.694  -4.242   5.256  0.00  0.00    +0.000 A 
ENDBRANCH  15  16
ENDBRANCH   9  14
BRANCH   5  22
ATOM     22  C   UNL     1       0.515   3.078   0.727  0.00  0.00    +0.000 C 
BRANCH  22  23
ATOM     23  C   UNL     1       1.389   1.839   0.831  0.00  0.00    +0.000 C 
ATOM     24  C   UNL     1       1.717   1.143  -0.291  0.00  0.00    +0.000 C 
ATOM     25  C   UNL     1       2.591  -0.096  -0.188  0.00  0.00    +0.000 C 
ATOM     26  C   UNL     1       1.211   1.605  -1.648  0.00  0.00    +0.000 C 
ENDBRANCH  22  23
ENDBRANCH   5  22
BRANCH   5  27
ATOM     27  C   UNL     1      -1.512   1.672   1.006  0.00  0.00    +0.000 C 
BRANCH  27  28
ATOM     28  C   UNL     1      -2.778   1.469   1.821  0.00  0.00    +0.000 C 
ATOM     29  C   UNL     1      -3.994   1.520   1.213  0.00  0.00    +0.000 C 
ATOM     30  C   UNL     1      -5.261   1.316   2.028  0.00  0.00    +0.000 C 
ATOM     31  C   UNL     1      -4.086   1.781  -0.282  0.00  0.00    +0.000 C 
ENDBRANCH  27  28
ENDBRANCH   5  27
TORSDOF 8
