REMARK  Name = 
REMARK  5 active torsions:
REMARK  status: ('A' for Active; 'I' for Inactive)
REMARK    1  A    between atoms: C_2  and  C_3
REMARK    2  A    between atoms: C_6  and  N_7
REMARK    3  A    between atoms: N_7  and  S_8
REMARK    4  A    between atoms: S_8  and  C_11
REMARK    5  A    between atoms: C_12  and  C_13
REMARK                            x       y       z     vdW  Elec       q    Type
REMARK                         _______ _______ _______ _____ _____    ______ ____
ROOT
ATOM      1  C   UNL     1       3.028   1.035   0.918  0.00  0.00    +0.000 A 
ATOM      2  C   UNL     1       2.308   2.013   1.693  0.00  0.00    +0.000 A 
ATOM      3  C   UNL     1       0.868   2.013   1.693  0.00  0.00    +0.000 A 
ATOM      4  C   UNL     1       0.148   2.990   2.468  0.00  0.00    +0.000 A 
ATOM      5  C   UNL     1       0.868   3.967   3.243  0.00  0.00    +0.000 A 
ATOM      6  C   UNL     1       4.468   1.035   0.918  0.00  0.00    +0.000 A 
ENDROOT
BRANCH   1   8
ATOM      7  O   UNL     1       0.997   0.004   0.100  0.00  0.00    +0.000 OA
ATOM      8  C   UNL     1       2.268   0.004   0.100  0.00  0.00    +0.000 C 
ATOM      9  N   UNL     1       3.003  -0.993  -0.691  0.00  0.00    +0.000 N 
ATOM     10  C   UNL     1       4.473  -0.993  -0.691  0.00  0.00    +0.000 C 
ATOM     11  C   UNL     1       4.980   0.339  -1.218  0.00  0.00    +0.000 C 
ATOM     12  C   UNL     1       4.473   1.462  -0.328  0.00  0.00    +0.000 C 
ATOM     13  C   UNL     1       4.980   1.252   1.090  0.00  0.00    +0.000 C 
ATOM     14  C   UNL     1       2.268  -1.991  -1.482  0.00  0.00    +0.000 C 
ENDBRANCH   1   8
BRANCH   4  15
ATOM     15  N   UNL     1      -1.322   2.990   2.468  0.00  0.00    +0.000 N 
ATOM     16  H   UNL     1      -1.832   2.298   1.919  0.00  0.00    +0.000 HD
BRANCH  15  17
ATOM     17  S   UNL     1      -2.202   4.184   3.415  0.00  0.00    +0.000 S 
ATOM     18  O   UNL     1      -3.082   5.024   2.486  0.00  0.00    +0.000 OA
ATOM     19  O   UNL     1      -3.082   3.471   4.444  0.00  0.00    +0.000 OA
BRANCH  17  20
ATOM     20  C   UNL     1      -1.026   5.262   4.270  0.00  0.00    +0.000 C 
ATOM     21  C   UNL     1       0.311   5.067   4.115  0.00  0.00    +0.000 C 
BRANCH  21  22
ATOM     22  C   UNL     1       1.299   5.972   4.833  0.00  0.00    +0.000 A 
ATOM     23  C   UNL     1       0.819   7.036   5.677  0.00  0.00    +0.000 A 
ATOM     24  C   UNL     1      -0.597   7.242   5.841  0.00  0.00    +0.000 A 
ATOM     25  C   UNL     1      -1.077   8.306   6.684  0.00  0.00    +0.000 A 
ATOM     26  C   UNL     1      -2.493   8.512   6.848  0.00  0.00    +0.000 A 
ATOM     27  C   UNL     1       2.715   5.766   4.670  0.00  0.00    +0.000 A 
ENDBRANCH  21  22
ENDBRANCH  17  20
ENDBRANCH  15  17
ENDBRANCH   4  15
TORSDOF 5
