REMARK  Name = 
REMARK  16 active torsions:
REMARK  status: ('A' for Active; 'I' for Inactive)
REMARK    1  A    between atoms: C_1  and  O_2
REMARK    2  A    between atoms: O_2  and  C_3
REMARK    3  A    between atoms: C_6  and  C_7
REMARK    4  A    between atoms: C_8  and  C_9
REMARK    5  A    between atoms: C_9  and  O_11
REMARK    6  A    between atoms: O_11  and  C_12
REMARK    7  A    between atoms: C_12  and  C_13
REMARK    8  A    between atoms: C_12  and  C_27
REMARK    9  A    between atoms: C_13  and  C_14
REMARK   10  A    between atoms: C_15  and  O_16
REMARK   11  A    between atoms: O_16  and  C_17
REMARK   12  A    between atoms: C_27  and  C_28
REMARK   13  A    between atoms: C_27  and  C_29
REMARK   14  A    between atoms: C_27  and  O_30
REMARK   15  A    between atoms: C_35  and  C_36
REMARK   16  A    between atoms: C_35  and  C_37
REMARK                            x       y       z     vdW  Elec       q    Type
REMARK                         _______ _______ _______ _____ _____    ______ ____
ROOT
ATOM      1  C   UNL     1      -4.209  -7.892  -3.057  0.00  0.00    +0.000 C 
ENDROOT
BRANCH   1   2
ATOM      2  C   UNL     1      -3.525  -9.155  -3.557  0.00  0.00    +0.000 C 
ATOM      3  C   UNL     1      -2.183  -9.312  -2.861  0.00  0.00    +0.000 C 
ATOM      4  C   UNL     1      -4.399 -10.360  -3.249  0.00  0.00    +0.000 C 
BRANCH   2   5
ATOM      5  O   UNL     1      -3.324  -9.061  -4.959  0.00  0.00    +0.000 OA
ATOM      6  H   UNL     1      -2.874  -9.892  -5.287  0.00  0.00    +0.000 HD
ENDBRANCH   2   5
ENDBRANCH   1   2
BRANCH   1   7
ATOM      7  O   UNL     1      -5.463  -7.745  -3.707  0.00  0.00    +0.000 OA
BRANCH   7   8
ATOM      8  C   UNL     1      -5.556  -7.864  -5.119  0.00  0.00    +0.000 C 
ATOM      9  O   UNL     1      -6.681  -7.733  -5.695  0.00  0.00    +0.000 OA
BRANCH   8  11
ATOM     10  C   UNL     1      -3.105  -8.286  -5.324  0.00  0.00    +0.000 C 
ATOM     11  C   UNL     1      -4.309  -8.146  -5.941  0.00  0.00    +0.000 C 
BRANCH  10  15
ATOM     12  C   UNL     1       1.874  -9.131  -5.620  0.00  0.00    +0.000 A 
ATOM     13  C   UNL     1       0.599  -8.983  -6.273  0.00  0.00    +0.000 A 
ATOM     14  C   UNL     1      -0.583  -8.716  -5.494  0.00  0.00    +0.000 A 
ATOM     15  C   UNL     1      -1.858  -8.568  -6.147  0.00  0.00    +0.000 A 
ATOM     16  C   UNL     1      -1.952  -8.688  -7.579  0.00  0.00    +0.000 A 
ATOM     17  C   UNL     1      -1.291  -8.018 -11.208  0.00  0.00    +0.000 A 
ATOM     18  C   UNL     1      -2.428  -7.602 -10.290  0.00  0.00    +0.000 C 
ATOM     19  O   UNL     1      -2.650  -6.370 -10.070  0.00  0.00    +0.000 OA
ATOM     20  C   UNL     1      -3.301  -8.660  -9.635  0.00  0.00    +0.000 C 
ATOM     21  C   UNL     1      -2.829 -10.041 -10.060  0.00  0.00    +0.000 C 
ATOM     22  C   UNL     1      -4.745  -8.464 -10.066  0.00  0.00    +0.000 C 
ATOM     23  O   UNL     1      -3.209  -8.542  -8.223  0.00  0.00    +0.000 OA
BRANCH  12  25
ATOM     24  C   UNL     1       3.223  -9.159  -3.564  0.00  0.00    +0.000 C 
ATOM     25  O   UNL     1       1.966  -9.013  -4.208  0.00  0.00    +0.000 OA
ENDBRANCH  12  25
ENDBRANCH  10  15
ENDBRANCH   8  11
ENDBRANCH   7   8
ENDBRANCH   1   7
BRANCH   1  26
ATOM     26  C   UNL     1      -3.335  -6.687  -3.365  0.00  0.00    +0.000 C 
BRANCH  26  27
ATOM     27  C   UNL     1      -2.793  -6.840  -4.777  0.00  0.00    +0.000 A 
ATOM     28  C   UNL     1      -2.090  -8.039  -5.152  0.00  0.00    +0.000 A 
ATOM     29  C   UNL     1      -1.577  -8.184  -6.490  0.00  0.00    +0.000 A 
ATOM     30  C   UNL     1      -1.766  -7.129  -7.452  0.00  0.00    +0.000 A 
ATOM     31  C   UNL     1      -1.253  -7.274  -8.790  0.00  0.00    +0.000 A 
ATOM     32  C   UNL     1      -0.550  -8.473  -9.165  0.00  0.00    +0.000 A 
ATOM     33  C   UNL     1      -0.360  -9.528  -8.203  0.00  0.00    +0.000 A 
ATOM     34  C   UNL     1       0.343 -10.727  -8.579  0.00  0.00    +0.000 A 
ATOM     35  O   UNL     1       0.511 -11.658  -7.730  0.00  0.00    +0.000 OA
ATOM     36  O   UNL     1       0.823 -10.863  -9.829  0.00  0.00    +0.000 OA
ATOM     37  C   UNL     1      -1.442  -6.219  -9.752  0.00  0.00    +0.000 A 
BRANCH  28  38
ATOM     38  O   UNL     1      -1.903  -9.079  -4.204  0.00  0.00    +0.000 OA
ATOM     39  C   UNL     1      -2.409  -8.937  -2.885  0.00  0.00    +0.000 C 
ENDBRANCH  28  38
ENDBRANCH  26  27
ENDBRANCH   1  26
TORSDOF 10
