REMARK  Name = 
REMARK  9 active torsions:
REMARK  status: ('A' for Active; 'I' for Inactive)
REMARK    1  A    between atoms: C_1  and  O_2
REMARK    2  A    between atoms: O_2  and  C_3
REMARK    3  A    between atoms: C_6  and  C_7
REMARK    4  A    between atoms: C_8  and  C_9
REMARK    5  A    between atoms: N_11  and  C_12
REMARK    6  A    between atoms: C_17  and  C_18
REMARK    7  A    between atoms: C_18  and  O_20
REMARK    8  A    between atoms: C_22  and  O_23
REMARK    9  A    between atoms: O_23  and  C_24
REMARK                            x       y       z     vdW  Elec       q    Type
REMARK                         _______ _______ _______ _____ _____    ______ ____
ROOT
ATOM      1  C   UNL     1      -3.058  -6.167  -5.236  0.00  0.00    +0.000 C 
ATOM      2  O   UNL     1      -3.481  -6.822  -6.239  0.00  0.00    +0.000 OA
ATOM      3  N   UNL     1      -3.413  -6.596  -3.875  0.00  0.00    +0.000 N 
ATOM      4  H   UNL     1      -3.999  -7.419  -3.737  0.00  0.00    +0.000 HD
ENDROOT
BRANCH   3   5
ATOM      5  C   UNL     1      -2.923  -5.839  -2.714  0.00  0.00    +0.000 A 
ATOM      6  C   UNL     1      -2.095  -4.677  -2.910  0.00  0.00    +0.000 A 
ATOM      7  C   UNL     1      -1.747  -4.256  -4.243  0.00  0.00    +0.000 A 
ATOM      8  C   UNL     1      -0.919  -3.094  -4.439  0.00  0.00    +0.000 A 
ATOM      9  C   UNL     1      -0.571  -2.674  -5.771  0.00  0.00    +0.000 A 
ATOM     10  C   UNL     1      -3.271  -6.259  -1.381  0.00  0.00    +0.000 A 
BRANCH  10  11
ATOM     11  C   UNL     1      -4.144  -7.485  -1.175  0.00  0.00    +0.000 C 
ATOM     12  O   UNL     1      -4.568  -8.140  -2.179  0.00  0.00    +0.000 OA
BRANCH  11  13
ATOM     13  O   UNL     1      -4.488  -7.900   0.139  0.00  0.00    +0.000 OA
ATOM     14  H   UNL     1      -5.062  -8.706   0.275  0.00  0.00    +0.000 HD
ENDBRANCH  11  13
ENDBRANCH  10  11
ENDBRANCH   3   5
BRANCH   1  16
ATOM     15  C   UNL     1      -1.730  -4.240  -4.368  0.00  0.00    +0.000 C 
ATOM     16  C   UNL     1      -2.184  -4.941  -5.442  0.00  0.00    +0.000 C 
BRANCH  15  20
ATOM     17  C   UNL     1       0.932  -0.368  -2.495  0.00  0.00    +0.000 A 
ATOM     18  C   UNL     1       0.452  -1.110  -3.633  0.00  0.00    +0.000 A 
ATOM     19  C   UNL     1      -0.376  -2.272  -3.437  0.00  0.00    +0.000 A 
ATOM     20  C   UNL     1      -0.856  -3.013  -4.574  0.00  0.00    +0.000 A 
ATOM     21  C   UNL     1      -0.508  -2.593  -5.907  0.00  0.00    +0.000 A 
ATOM     22  C   UNL     1       1.760   0.794  -2.691  0.00  0.00    +0.000 A 
BRANCH  17  24
ATOM     23  C   UNL     1       1.062  -0.050  -0.060  0.00  0.00    +0.000 C 
ATOM     24  O   UNL     1       0.589  -0.782  -1.181  0.00  0.00    +0.000 OA
ENDBRANCH  17  24
BRANCH  22  25
ATOM     25  O   UNL     1       2.233   1.526  -1.570  0.00  0.00    +0.000 OA
ATOM     26  C   UNL     1       3.050   2.672  -1.763  0.00  0.00    +0.000 C 
ENDBRANCH  22  25
ENDBRANCH  15  20
ENDBRANCH   1  16
TORSDOF 7
