REMARK  Name = 
REMARK  7 active torsions:
REMARK  status: ('A' for Active; 'I' for Inactive)
REMARK    1  A    between atoms: C_2  and  C_3
REMARK    2  A    between atoms: C_2  and  C_17
REMARK    3  A    between atoms: C_3  and  C_4
REMARK    4  A    between atoms: C_7  and  C_8
REMARK    5  A    between atoms: C_21  and  C_22
REMARK    6  A    between atoms: N_27  and  C_28
REMARK    7  A    between atoms: C_28  and  C_29
REMARK                            x       y       z     vdW  Elec       q    Type
REMARK                         _______ _______ _______ _____ _____    ______ ____
ROOT
ATOM      1  C   UNL     1       1.013  -2.026   1.506  0.00  0.00    +0.000 A 
ATOM      2  N   UNL     1       0.316  -2.974   2.252  0.00  0.00    +0.000 NA
ATOM      3  C   UNL     1       1.013  -3.922   2.997  0.00  0.00    +0.000 A 
ATOM      4  C   UNL     1       0.293  -4.902   3.769  0.00  0.00    +0.000 A 
ATOM      5  C   UNL     1      -1.148  -4.902   3.769  0.00  0.00    +0.000 A 
ATOM      6  C   UNL     1      -1.868  -3.922   2.997  0.00  0.00    +0.000 A 
ATOM      7  C   UNL     1      -1.148  -2.941   2.226  0.00  0.00    +0.000 A 
ATOM      8  C   UNL     1       2.453  -3.922   2.997  0.00  0.00    +0.000 A 
ATOM      9  N   UNL     1       2.406  -2.026   1.506  0.00  0.00    +0.000 N 
ENDROOT
BRANCH   1  11
ATOM     10  C   UNL     1       0.933  -0.065  -0.036  0.00  0.00    +0.000 C 
ATOM     11  C   UNL     1       0.253  -0.991   0.692  0.00  0.00    +0.000 C 
BRANCH  11  12
ATOM     12  C   UNL     1      -1.267  -0.991   0.692  0.00  0.00    +0.000 C 
BRANCH  12  13
ATOM     13  C   UNL     1      -1.774  -2.321   0.160  0.00  0.00    +0.000 A 
ATOM     14  C   UNL     1      -1.426  -2.743  -1.173  0.00  0.00    +0.000 A 
ATOM     15  C   UNL     1      -0.598  -1.905  -2.000  0.00  0.00    +0.000 A 
ATOM     16  C   UNL     1      -0.250  -2.326  -3.333  0.00  0.00    +0.000 A 
ATOM     17  C   UNL     1      -0.730  -3.587  -3.837  0.00  0.00    +0.000 A 
ATOM     18  C   UNL     1      -2.602  -3.160   0.988  0.00  0.00    +0.000 A 
BRANCH  16  19
ATOM     19  C   UNL     1       0.624  -1.441  -4.206  0.00  0.00    +0.000 A 
ATOM     20  C   UNL     1       1.104  -0.181  -3.702  0.00  0.00    +0.000 A 
ATOM     21  N   UNL     1       0.767   0.227  -2.413  0.00  0.00    +0.000 NA
ATOM     22  C   UNL     1      -0.033  -0.584  -1.613  0.00  0.00    +0.000 A 
ATOM     23  N   UNL     1      -0.523  -1.870  -2.128  0.00  0.00    +0.000 N 
ATOM     24  N   UNL     1      -0.370  -0.176  -0.324  0.00  0.00    +0.000 NA
ATOM     25  C   UNL     1       0.972  -1.863  -5.539  0.00  0.00    +0.000 A 
ATOM     26  H   UNL     1      -1.110  -2.464  -1.541  0.00  0.00    +0.000 HD
ATOM     27  H   UNL     1      -0.277  -2.169  -3.071  0.00  0.00    +0.000 HD
ENDBRANCH  16  19
ENDBRANCH  12  13
ENDBRANCH  11  12
ENDBRANCH   1  11
BRANCH   5  28
ATOM     28  C   UNL     1      -1.908  -5.937   4.582  0.00  0.00    +0.000 C 
ATOM     29  N   UNL     1      -2.538  -6.795   5.257  0.00  0.00    +0.000 NA
ENDBRANCH   5  28
BRANCH   9  30
ATOM     30  C   UNL     1       3.141  -1.025   0.719  0.00  0.00    +0.000 C 
BRANCH  30  31
ATOM     31  C   UNL     1       2.773  -1.166  -0.749  0.00  0.00    +0.000 A 
ATOM     32  C   UNL     1       3.026  -2.405  -1.439  0.00  0.00    +0.000 A 
ATOM     33  C   UNL     1       3.626  -3.510  -0.738  0.00  0.00    +0.000 A 
ATOM     34  C   UNL     1       3.878  -4.749  -1.427  0.00  0.00    +0.000 A 
ATOM     35  C   UNL     1       4.478  -5.854  -0.726  0.00  0.00    +0.000 A 
ATOM     36  C   UNL     1       2.173  -0.060  -1.451  0.00  0.00    +0.000 A 
ATOM     37 CL   UNL     1       1.862   1.471  -0.598  0.00  0.00    +0.000 Cl
ENDBRANCH  30  31
ENDBRANCH   9  30
TORSDOF 7
