REMARK  Name = 
REMARK  4 active torsions:
REMARK  status: ('A' for Active; 'I' for Inactive)
REMARK    1  A    between atoms: C_1  and  O_2
REMARK    2  A    between atoms: O_2  and  C_3
REMARK    3  A    between atoms: C_8  and  C_9
REMARK    4  A    between atoms: N_11  and  C_12
REMARK                            x       y       z     vdW  Elec       q    Type
REMARK                         _______ _______ _______ _____ _____    ______ ____
ROOT
ATOM      1  C   UNL     1       0.787   1.183  -2.089  0.00  0.00    +0.000 A 
ATOM      2  C   UNL     1       0.307   1.277  -3.443  0.00  0.00    +0.000 A 
ATOM      3  C   UNL     1      -0.521   0.232  -3.988  0.00  0.00    +0.000 A 
ATOM      4  C   UNL     1      -1.001   0.325  -5.342  0.00  0.00    +0.000 A 
ATOM      5  C   UNL     1      -0.653   1.464  -6.152  0.00  0.00    +0.000 A 
ATOM      6  C   UNL     1       0.175   2.509  -5.608  0.00  0.00    +0.000 A 
ATOM      7  C   UNL     1       0.655   2.416  -4.253  0.00  0.00    +0.000 A 
ATOM      8  N   UNL     1       0.318   1.314  -3.470  0.00  0.00    +0.000 NA
ATOM      9  C   UNL     1      -1.829  -0.720  -5.887  0.00  0.00    +0.000 A 
ATOM     10  C   UNL     1       1.615   2.228  -1.544  0.00  0.00    +0.000 A 
ENDROOT
BRANCH   6  11
ATOM     11  C   UNL     1       0.542   3.711  -6.463  0.00  0.00    +0.000 C 
ATOM     12  O   UNL     1       1.272   4.633  -5.983  0.00  0.00    +0.000 OA
ATOM     13  N   UNL     1       0.052   3.807  -7.846  0.00  0.00    +0.000 N 
ATOM     14  H   UNL     1       0.298   4.613  -8.419  0.00  0.00    +0.000 HD
BRANCH  13  15
ATOM     15  C   UNL     1      -0.793   2.740  -8.401  0.00  0.00    +0.000 C 
ATOM     16  C   UNL     1      -0.109   2.132  -9.615  0.00  0.00    +0.000 C 
ATOM     17  C   UNL     1       1.233   1.551  -9.202  0.00  0.00    +0.000 C 
ATOM     18  C   UNL     1       1.018   0.476  -8.150  0.00  0.00    +0.000 C 
ATOM     19  C   UNL     1      -2.136   3.321  -8.814  0.00  0.00    +0.000 C 
ENDBRANCH  13  15
ENDBRANCH   6  11
BRANCH   1  21
ATOM     20  C   UNL     1       0.917  -0.032   0.046  0.00  0.00    +0.000 C 
ATOM     21  O   UNL     1       0.444   0.060  -1.290  0.00  0.00    +0.000 OA
ENDBRANCH   1  21
TORSDOF 3
