REMARK  Name = 
REMARK  6 active torsions:
REMARK  status: ('A' for Active; 'I' for Inactive)
REMARK    1  A    between atoms: C_1  and  C_2
REMARK    2  A    between atoms: C_6  and  C_7
REMARK    3  A    between atoms: N_9  and  N_10
REMARK    4  A    between atoms: N_10  and  C_11
REMARK    5  A    between atoms: C_11  and  N_13
REMARK    6  A    between atoms: C_14  and  C_16
REMARK                            x       y       z     vdW  Elec       q    Type
REMARK                         _______ _______ _______ _____ _____    ______ ____
ROOT
ATOM      1  N   UNL     1       4.562  -0.495  -6.680  0.00  0.00    +0.000 N 
ATOM      2  H   UNL     1       4.222  -1.451  -6.786  0.00  0.00    +0.000 HD
ENDROOT
BRANCH   1   5
ATOM      3  C   UNL     1       3.374  -0.342  -4.483  0.00  0.00    +0.000 C 
ATOM      4  O   UNL     1       3.067   0.332  -3.449  0.00  0.00    +0.000 OA
ATOM      5  N   UNL     1       4.219   0.257  -5.526  0.00  0.00    +0.000 N 
ATOM      6  H   UNL     1       4.559   1.213  -5.420  0.00  0.00    +0.000 HD
BRANCH   3  12
ATOM      7  C   UNL     1       1.022   0.011  -0.097  0.00  0.00    +0.000 C 
ATOM      8  C   UNL     1       0.515  -1.413  -0.254  0.00  0.00    +0.000 A 
ATOM      9  C   UNL     1       0.863  -2.176  -1.425  0.00  0.00    +0.000 A 
ATOM     10  C   UNL     1       1.691  -1.590  -2.447  0.00  0.00    +0.000 A 
ATOM     11  C   UNL     1       2.039  -2.353  -3.618  0.00  0.00    +0.000 A 
ATOM     12  C   UNL     1       2.867  -1.766  -4.640  0.00  0.00    +0.000 A 
ATOM     13  C   UNL     1      -0.313  -2.000   0.768  0.00  0.00    +0.000 A 
ENDBRANCH   3  12
ENDBRANCH   1   5
BRANCH   1  14
ATOM     14  C   UNL     1       5.407   0.103  -7.723  0.00  0.00    +0.000 C 
ATOM     15  S   UNL     1       5.798  -0.755  -9.040  0.00  0.00    +0.000 S 
BRANCH  14  16
ATOM     16  N   UNL     1       5.897   1.481  -7.572  0.00  0.00    +0.000 N 
ATOM     17  C   UNL     1       5.542   2.260  -6.376  0.00  0.00    +0.000 C 
ATOM     18  O   UNL     1       5.965   3.451  -6.245  0.00  0.00    +0.000 OA
ATOM     19  H   UNL     1       6.483   1.896  -8.295  0.00  0.00    +0.000 HD
BRANCH  17  20
ATOM     20  C   UNL     1       4.668   1.641  -5.298  0.00  0.00    +0.000 A 
ATOM     21  C   UNL     1       4.320   2.404  -4.127  0.00  0.00    +0.000 A 
ATOM     22  C   UNL     1       4.800   3.753  -3.978  0.00  0.00    +0.000 A 
ATOM     23  C   UNL     1       4.452   4.517  -2.807  0.00  0.00    +0.000 A 
ATOM     24  C   UNL     1       4.932   5.866  -2.659  0.00  0.00    +0.000 A 
ATOM     25  C   UNL     1       4.188   0.291  -5.447  0.00  0.00    +0.000 A 
ENDBRANCH  17  20
ENDBRANCH  14  16
ENDBRANCH   1  14
TORSDOF 5
