REMARK  Name = 
REMARK  12 active torsions:
REMARK  status: ('A' for Active; 'I' for Inactive)
REMARK    1  A    between atoms: C_1  and  O_2
REMARK    2  A    between atoms: O_2  and  C_3
REMARK    3  A    between atoms: C_5  and  C_6
REMARK    4  A    between atoms: N_8  and  N_9
REMARK    5  A    between atoms: N_9  and  C_10
REMARK    6  A    between atoms: C_10  and  N_12
REMARK    7  A    between atoms: C_13  and  C_15
REMARK    8  A    between atoms: C_20  and  C_21
REMARK    9  A    between atoms: C_23  and  O_24
REMARK   10  A    between atoms: O_24  and  C_25
REMARK   11  A    between atoms: C_26  and  O_27
REMARK   12  A    between atoms: O_27  and  C_28
REMARK                            x       y       z     vdW  Elec       q    Type
REMARK                         _______ _______ _______ _____ _____    ______ ____
ROOT
ATOM      1  C   UNL     1      -0.983   4.138   3.725  0.00  0.00    +0.000 C 
ATOM      2  O   UNL     1      -1.714   5.086   3.298  0.00  0.00    +0.000 OA
ATOM      3  N   UNL     1      -0.628   4.066   5.149  0.00  0.00    +0.000 N 
ATOM      4  H   UNL     1      -0.968   4.778   5.796  0.00  0.00    +0.000 HD
ENDROOT
BRANCH   1   7
ATOM      5  C   UNL     1       0.831   0.997   2.331  0.00  0.00    +0.000 A 
ATOM      6  C   UNL     1       0.351   2.002   3.244  0.00  0.00    +0.000 A 
ATOM      7  C   UNL     1      -0.477   3.077   2.761  0.00  0.00    +0.000 A 
ATOM      8  C   UNL     1      -0.825   3.146   1.365  0.00  0.00    +0.000 A 
ATOM      9  C   UNL     1      -0.345   2.141   0.453  0.00  0.00    +0.000 A 
ATOM     10  C   UNL     1       1.659  -0.078   2.814  0.00  0.00    +0.000 A 
BRANCH   5  12
ATOM     11  C   UNL     1       0.962   0.074   0.055  0.00  0.00    +0.000 C 
ATOM     12  O   UNL     1       0.488   1.065   0.955  0.00  0.00    +0.000 OA
ENDBRANCH   5  12
BRANCH   9  13
ATOM     13  O   UNL     1       0.472   1.081   0.929  0.00  0.00    +0.000 OA
ATOM     14  C   UNL     1       0.945   0.090   0.029  0.00  0.00    +0.000 C 
ENDBRANCH   9  13
BRANCH  10  15
ATOM     15  O   UNL     1       2.133  -1.069   1.914  0.00  0.00    +0.000 OA
ATOM     16  C   UNL     1       2.949  -2.129   2.391  0.00  0.00    +0.000 C 
ENDBRANCH  10  15
ENDBRANCH   1   7
BRANCH   3  17
ATOM     17  N   UNL     1       0.188   3.007   5.626  0.00  0.00    +0.000 N 
ATOM     18  H   UNL     1       0.528   2.295   4.979  0.00  0.00    +0.000 HD
BRANCH  17  19
ATOM     19  C   UNL     1       0.543   2.936   7.050  0.00  0.00    +0.000 C 
ATOM     20  S   UNL     1       1.475   1.727   7.594  0.00  0.00    +0.000 S 
BRANCH  19  21
ATOM     21  N   UNL     1       0.053   3.962   7.982  0.00  0.00    +0.000 N 
ATOM     22  C   UNL     1      -0.792   5.059   7.489  0.00  0.00    +0.000 C 
ATOM     23  O   UNL     1      -1.216   5.946   8.294  0.00  0.00    +0.000 OA
ATOM     24  H   UNL     1       0.300   3.912   8.970  0.00  0.00    +0.000 HD
BRANCH  22  25
ATOM     25  C   UNL     1      -1.159   5.132   6.016  0.00  0.00    +0.000 A 
ATOM     26  C   UNL     1      -1.987   6.207   5.533  0.00  0.00    +0.000 A 
ATOM     27  C   UNL     1      -2.467   7.212   6.446  0.00  0.00    +0.000 A 
ATOM     28  C   UNL     1      -3.295   8.287   5.963  0.00  0.00    +0.000 A 
ATOM     29  C   UNL     1      -3.775   9.292   6.875  0.00  0.00    +0.000 A 
ATOM     30  C   UNL     1      -0.679   4.127   5.103  0.00  0.00    +0.000 A 
ATOM     31  C   UNL     1       0.195   2.993   5.613  0.00  0.00    +0.000 C 
ENDBRANCH  22  25
ENDBRANCH  19  21
ENDBRANCH  17  19
ENDBRANCH   3  17
TORSDOF 8
