REMARK  Name = 
REMARK  7 active torsions:
REMARK  status: ('A' for Active; 'I' for Inactive)
REMARK    1  A    between atoms: C_1  and  O_2
REMARK    2  A    between atoms: O_2  and  C_3
REMARK    3  A    between atoms: C_6  and  C_7
REMARK    4  A    between atoms: C_20  and  C_21
REMARK    5  A    between atoms: C_20  and  C_22
REMARK    6  A    between atoms: C_25  and  O_26
REMARK    7  A    between atoms: O_26  and  C_27
REMARK                            x       y       z     vdW  Elec       q    Type
REMARK                         _______ _______ _______ _____ _____    ______ ____
ROOT
ATOM      1  C   UNL     1      -1.851   5.372  -2.849  0.00  0.00    +0.000 C 
ATOM      2  C   UNL     1       0.783   8.819  -6.775  0.00  0.00    +0.000 C 
ATOM      3  C   UNL     1       0.099   7.907  -5.770  0.00  0.00    +0.000 C 
ATOM      4  O   UNL     1      -0.178   6.707  -6.086  0.00  0.00    +0.000 OA
ATOM      5  C   UNL     1      -0.255   8.429  -4.387  0.00  0.00    +0.000 A 
ATOM      6  C   UNL     1       0.058   9.789  -4.029  0.00  0.00    +0.000 A 
ATOM      7  C   UNL     1      -0.277  10.284  -2.719  0.00  0.00    +0.000 A 
ATOM      8  C   UNL     1       0.036  11.643  -2.361  0.00  0.00    +0.000 A 
ATOM      9  C   UNL     1      -1.732  15.850  -1.000  0.00  0.00    +0.000 A 
ATOM     10  C   UNL     1      -0.903   7.565  -3.435  0.00  0.00    +0.000 A 
ATOM     11  O   UNL     1      -1.212   6.224  -3.788  0.00  0.00    +0.000 OA
ATOM     12  C   UNL     1      -0.451  15.112  -1.354  0.00  0.00    +0.000 C 
ATOM     13  C   UNL     1      -0.297  14.574  -2.594  0.00  0.00    +0.000 C 
ATOM     14  C   UNL     1       0.984  13.836  -2.948  0.00  0.00    +0.000 C 
ATOM     15  C   UNL     1       1.920  13.842  -1.750  0.00  0.00    +0.000 C 
ATOM     16  C   UNL     1       1.659  14.526  -4.121  0.00  0.00    +0.000 C 
ATOM     17  O   UNL     1       0.675  12.495  -3.300  0.00  0.00    +0.000 OA
ENDROOT
BRANCH   1  21
ATOM     18  C   UNL     1       0.811   2.510   0.362  0.00  0.00    +0.000 A 
ATOM     19  C   UNL     1       0.331   3.807  -0.040  0.00  0.00    +0.000 A 
ATOM     20  C   UNL     1      -0.497   3.938  -1.211  0.00  0.00    +0.000 A 
ATOM     21  C   UNL     1      -0.977   5.235  -1.613  0.00  0.00    +0.000 A 
ATOM     22  C   UNL     1      -0.629   6.401  -0.843  0.00  0.00    +0.000 A 
ATOM     23  C   UNL     1       1.639   2.380   1.533  0.00  0.00    +0.000 A 
BRANCH  18  25
ATOM     24  C   UNL     1       0.941   0.081  -0.001  0.00  0.00    +0.000 C 
ATOM     25  O   UNL     1       0.468   1.360  -0.397  0.00  0.00    +0.000 OA
ENDBRANCH  18  25
BRANCH  23  26
ATOM     26  O   UNL     1       2.112   1.101   1.929  0.00  0.00    +0.000 OA
ATOM     27  C   UNL     1       2.929   0.972   3.084  0.00  0.00    +0.000 C 
ENDBRANCH  23  26
ENDBRANCH   1  21
TORSDOF 3
