REMARK  Name = 
REMARK  8 active torsions:
REMARK  status: ('A' for Active; 'I' for Inactive)
REMARK    1  A    between atoms: C_1  and  C_2
REMARK    2  A    between atoms: N_4  and  C_5
REMARK    3  A    between atoms: C_8  and  C_9
REMARK    4  A    between atoms: C_12  and  C_13
REMARK    5  A    between atoms: N_15  and  C_16
REMARK    6  A    between atoms: C_16  and  C_17
REMARK    7  A    between atoms: C_17  and  C_18
REMARK    8  A    between atoms: C_19  and  C_20
REMARK                            x       y       z     vdW  Elec       q    Type
REMARK                         _______ _______ _______ _____ _____    ______ ____
ROOT
ATOM      1  C   UNL     1       1.961   2.680   0.283  0.00  0.00    +0.000 A 
ATOM      2  C   UNL     1       1.133   2.067   1.290  0.00  0.00    +0.000 A 
ATOM      3  C   UNL     1       0.653   0.722   1.106  0.00  0.00    +0.000 A 
ATOM      4  C   UNL     1      -0.175   0.109   2.113  0.00  0.00    +0.000 A 
ATOM      5  C   UNL     1      -0.523   0.842   3.303  0.00  0.00    +0.000 A 
ATOM      6  N   UNL     1       2.425   3.981   0.461  0.00  0.00    +0.000 NA
ENDROOT
BRANCH   1  10
ATOM      7  C   UNL     1       1.716  -1.517  -2.530  0.00  0.00    +0.000 A 
ATOM      8  C   UNL     1       2.196  -0.172  -2.346  0.00  0.00    +0.000 A 
ATOM      9  C   UNL     1       1.848   0.561  -1.156  0.00  0.00    +0.000 A 
ATOM     10  C   UNL     1       2.328   1.906  -0.973  0.00  0.00    +0.000 A 
ATOM     11  C   UNL     1       3.156   2.519  -1.980  0.00  0.00    +0.000 A 
ATOM     12  C   UNL     1       2.064  -2.250  -3.720  0.00  0.00    +0.000 A 
BRANCH   7  16
ATOM     13  C   UNL     1       1.022   0.025  -0.094  0.00  0.00    +0.000 C 
ATOM     14  C   UNL     1       0.516  -1.395  -0.288  0.00  0.00    +0.000 C 
ATOM     15  O   UNL     1      -0.215  -1.935   0.600  0.00  0.00    +0.000 OA
ATOM     16  N   UNL     1       0.871  -2.143  -1.503  0.00  0.00    +0.000 N 
ATOM     17  H   UNL     1       0.531  -3.095  -1.632  0.00  0.00    +0.000 HD
ENDBRANCH   7  16
ENDBRANCH   1  10
BRANCH   4  18
ATOM     18  C   UNL     1      -0.682  -1.311   1.919  0.00  0.00    +0.000 C 
ATOM     19  O   UNL     1      -1.413  -1.852   2.807  0.00  0.00    +0.000 OA
ATOM     20  N   UNL     1      -0.327  -2.059   0.704  0.00  0.00    +0.000 N 
ATOM     21  H   UNL     1      -0.667  -3.012   0.575  0.00  0.00    +0.000 HD
BRANCH  20  22
ATOM     22  C   UNL     1       0.518  -1.434  -0.323  0.00  0.00    +0.000 C 
BRANCH  22  23
ATOM     23  C   UNL     1       1.785  -2.254  -0.505  0.00  0.00    +0.000 C 
BRANCH  23  24
ATOM     24  C   UNL     1       1.418  -3.663  -0.940  0.00  0.00    +0.000 A 
ATOM     25  C   UNL     1       0.590  -4.485  -0.095  0.00  0.00    +0.000 A 
ATOM     26  C   UNL     1       0.083  -3.943   1.231  0.00  0.00    +0.000 C 
ATOM     27  N   UNL     1       0.253  -5.776  -0.494  0.00  0.00    +0.000 N 
ATOM     28  C   UNL     1       0.718  -6.273  -1.710  0.00  0.00    +0.000 A 
ATOM     29  C   UNL     1       1.546  -5.452  -2.554  0.00  0.00    +0.000 A 
ATOM     30  C   UNL     1       1.893  -4.116  -2.142  0.00  0.00    +0.000 A 
ATOM     31  C   UNL     1       2.721  -3.295  -2.987  0.00  0.00    +0.000 A 
ATOM     32  C   UNL     1       3.069  -1.959  -2.575  0.00  0.00    +0.000 A 
ATOM     33  C   UNL     1       0.370  -7.609  -2.122  0.00  0.00    +0.000 A 
ATOM     34  H   UNL     1      -0.333  -6.358   0.104  0.00  0.00    +0.000 HD
ENDBRANCH  23  24
ENDBRANCH  22  23
ENDBRANCH  20  22
ENDBRANCH   4  18
TORSDOF 6
