REMARK  Name = 
REMARK  6 active torsions:
REMARK  status: ('A' for Active; 'I' for Inactive)
REMARK    1  A    between atoms: C_1  and  O_2
REMARK    2  A    between atoms: O_2  and  C_3
REMARK    3  A    between atoms: C_6  and  C_7
REMARK    4  A    between atoms: C_7  and  C_8
REMARK    5  A    between atoms: C_8  and  C_9
REMARK    6  A    between atoms: C_9  and  C_11
REMARK                            x       y       z     vdW  Elec       q    Type
REMARK                         _______ _______ _______ _____ _____    ______ ____
ROOT
ATOM      1  C   UNL     1      -0.313  -0.099  -2.080  0.00  0.00    +0.000 C 
ENDROOT
BRANCH   1   5
ATOM      2  C   UNL     1       0.798   1.977  -1.547  0.00  0.00    +0.000 A 
ATOM      3  C   UNL     1       0.318   2.599  -2.754  0.00  0.00    +0.000 A 
ATOM      4  N   UNL     1      -0.483   1.880  -3.637  0.00  0.00    +0.000 NA
ATOM      5  C   UNL     1      -0.819   0.558  -3.354  0.00  0.00    +0.000 A 
ATOM      6  C   UNL     1      -1.647  -0.186  -4.268  0.00  0.00    +0.000 A 
ATOM      7  N   UNL     1      -1.984  -1.508  -3.984  0.00  0.00    +0.000 N 
ATOM      8  C   UNL     1      -1.519  -2.109  -2.817  0.00  0.00    +0.000 A 
ATOM      9  C   UNL     1      -0.691  -1.365  -1.903  0.00  0.00    +0.000 A 
ATOM     10  C   UNL     1      -0.343   0.001  -2.196  0.00  0.00    +0.000 A 
ATOM     11  C   UNL     1       0.485   0.745  -1.283  0.00  0.00    +0.000 A 
ATOM     12  C   UNL     1       0.832   2.112  -1.576  0.00  0.00    +0.000 A 
ATOM     13  C   UNL     1      -1.867  -3.476  -2.524  0.00  0.00    +0.000 A 
ATOM     14  C   UNL     1      -2.127   0.436  -5.474  0.00  0.00    +0.000 A 
ATOM     15  H   UNL     1      -2.570  -2.035  -4.631  0.00  0.00    +0.000 HD
BRANCH   2  17
ATOM     16  C   UNL     1       0.928   0.016  -0.068  0.00  0.00    +0.000 C 
ATOM     17  O   UNL     1       0.455   0.630  -1.258  0.00  0.00    +0.000 OA
ENDBRANCH   2  17
ENDBRANCH   1   5
BRANCH   1  18
ATOM     18  C   UNL     1      -1.495  -0.537  -1.231  0.00  0.00    +0.000 C 
BRANCH  18  19
ATOM     19  C   UNL     1      -2.339  -1.530  -2.012  0.00  0.00    +0.000 C 
ATOM     20  O   UNL     1      -2.519  -2.704  -1.561  0.00  0.00    +0.000 OA
BRANCH  19  21
ATOM     21  C   UNL     1      -2.968  -1.119  -3.334  0.00  0.00    +0.000 A 
ATOM     22  N   UNL     1      -3.742  -2.030  -4.049  0.00  0.00    +0.000 NA
ATOM     23  C   UNL     1      -4.318  -1.653  -5.260  0.00  0.00    +0.000 A 
ATOM     24  C   UNL     1      -4.114  -0.323  -5.772  0.00  0.00    +0.000 A 
ATOM     25  C   UNL     1      -4.710   0.066  -7.024  0.00  0.00    +0.000 A 
ATOM     26  C   UNL     1      -6.486   1.178 -10.722  0.00  0.00    +0.000 A 
ATOM     27  N   UNL     1      -5.909   0.801  -9.511  0.00  0.00    +0.000 N 
ATOM     28  C   UNL     1      -6.107  -0.486  -9.016  0.00  0.00    +0.000 A 
ATOM     29  C   UNL     1      -6.907  -1.427  -9.756  0.00  0.00    +0.000 A 
ATOM     30  C   UNL     1      -7.111  -2.758  -9.244  0.00  0.00    +0.000 A 
ATOM     31  C   UNL     1      -7.911  -3.699  -9.984  0.00  0.00    +0.000 A 
ATOM     32  C   UNL     1      -5.715  -2.206  -7.252  0.00  0.00    +0.000 A 
ATOM     33  C   UNL     1      -5.511  -0.875  -7.764  0.00  0.00    +0.000 A 
ATOM     34  H   UNL     1      -5.343   1.468  -8.987  0.00  0.00    +0.000 HD
ENDBRANCH  19  21
ENDBRANCH  18  19
ENDBRANCH   1  18
TORSDOF 5
