REMARK  Name = 
REMARK  11 active torsions:
REMARK  status: ('A' for Active; 'I' for Inactive)
REMARK    1  A    between atoms: N_1  and  S_2
REMARK    2  A    between atoms: S_2  and  C_5
REMARK    3  A    between atoms: C_8  and  O_9
REMARK    4  A    between atoms: O_9  and  C_10
REMARK    5  A    between atoms: C_10  and  C_11
REMARK    6  A    between atoms: C_11  and  C_12
REMARK    7  A    between atoms: C_12  and  N_13
REMARK    8  A    between atoms: C_14  and  C_16
REMARK    9  A    between atoms: C_16  and  C_17
REMARK   10  A    between atoms: C_22  and  N_23
REMARK   11  A    between atoms: N_23  and  C_24
REMARK                            x       y       z     vdW  Elec       q    Type
REMARK                         _______ _______ _______ _____ _____    ______ ____
ROOT
ATOM      1  N   UNL     1      -0.598   1.328   3.314  0.00  0.00    +0.000 N 
ATOM      2  C   UNL     1      -0.206   1.509   1.909  0.00  0.00    +0.000 C 
ATOM      3  O   UNL     1      -0.912   1.002   0.982  0.00  0.00    +0.000 OA
ATOM      4  H   UNL     1      -1.437   0.795   3.545  0.00  0.00    +0.000 HD
ENDROOT
BRANCH   1   5
ATOM      5  C   UNL     1       0.219   1.914   4.386  0.00  0.00    +0.000 C 
BRANCH   5   6
ATOM      6  C   UNL     1      -0.626   2.889   5.191  0.00  0.00    +0.000 C 
BRANCH   6   7
ATOM      7  C   UNL     1      -1.808   2.152   5.800  0.00  0.00    +0.000 C 
BRANCH   7   8
ATOM      8  O   UNL     1      -1.335   1.120   6.652  0.00  0.00    +0.000 OA
BRANCH   8  12
ATOM      9  C   UNL     1       1.005  -0.976   2.799  0.00  0.00    +0.000 A 
ATOM     10  C   UNL     1       0.657  -0.972   4.197  0.00  0.00    +0.000 A 
ATOM     11  C   UNL     1      -0.170   0.079   4.729  0.00  0.00    +0.000 A 
ATOM     12  C   UNL     1      -0.518   0.084   6.127  0.00  0.00    +0.000 A 
ATOM     13  C   UNL     1      -0.038  -0.963   6.992  0.00  0.00    +0.000 A 
ATOM     14  C   UNL     1       1.833  -2.027   2.266  0.00  0.00    +0.000 A 
BRANCH   9  15
ATOM     15  S   UNL     1       0.402   0.340   1.712  0.00  0.00    +0.000 S 
ATOM     16  O   UNL     1       0.912   1.692   2.216  0.00  0.00    +0.000 OA
ATOM     17  O   UNL     1      -1.128   0.340   1.712  0.00  0.00    +0.000 OA
BRANCH  15  18
ATOM     18  N   UNL     1       0.989   0.064   0.076  0.00  0.00    +0.000 NA
ATOM     19  H   UNL     1       0.649   0.805  -0.536  0.00  0.00    +0.000 HD
ATOM     20  H   UNL     1       2.009   0.064   0.076  0.00  0.00    +0.000 HD
ENDBRANCH  15  18
ENDBRANCH   9  15
ENDBRANCH   8  12
ENDBRANCH   7   8
ENDBRANCH   6   7
ENDBRANCH   5   6
ENDBRANCH   1   5
BRANCH   2  21
ATOM     21  C   UNL     1       1.043   2.303   1.565  0.00  0.00    +0.000 C 
BRANCH  21  22
ATOM     22  C   UNL     1       0.904   3.722   2.093  0.00  0.00    +0.000 A 
ATOM     23  C   UNL     1      -0.176   4.558   1.636  0.00  0.00    +0.000 A 
ATOM     24  C   UNL     1      -1.124   4.050   0.679  0.00  0.00    +0.000 A 
ATOM     25  C   UNL     1      -2.204   4.885   0.222  0.00  0.00    +0.000 A 
ATOM     26  C   UNL     1      -3.152   4.377  -0.736  0.00  0.00    +0.000 A 
ATOM     27  C   UNL     1       1.852   4.230   3.051  0.00  0.00    +0.000 A 
BRANCH  27  28
ATOM     28  N   UNL     1       2.954   3.377   3.518  0.00  0.00    +0.000 N 
ATOM     29  H   UNL     1       3.626   3.736   4.196  0.00  0.00    +0.000 HD
BRANCH  28  30
ATOM     30  C   UNL     1       3.089   2.005   3.006  0.00  0.00    +0.000 A 
ATOM     31  C   UNL     1       2.141   1.497   2.049  0.00  0.00    +0.000 A 
ATOM     32 CL   UNL     1       0.806   2.530   1.484  0.00  0.00    +0.000 Cl
ATOM     33  C   UNL     1       2.273   0.153   1.548  0.00  0.00    +0.000 A 
ATOM     34  C   UNL     1       3.354  -0.683   2.005  0.00  0.00    +0.000 A 
ATOM     35  C   UNL     1       3.486  -2.027   1.504  0.00  0.00    +0.000 A 
ATOM     36  C   UNL     1       4.169   1.169   3.463  0.00  0.00    +0.000 A 
ATOM     37 CL   UNL     1       5.341   1.797   4.647  0.00  0.00    +0.000 Cl
ENDBRANCH  28  30
ENDBRANCH  27  28
ENDBRANCH  21  22
ENDBRANCH   2  21
TORSDOF 11
