REMARK  Name = 
REMARK  7 active torsions:
REMARK  status: ('A' for Active; 'I' for Inactive)
REMARK    1  A    between atoms: C_1  and  C_2
REMARK    2  A    between atoms: C_2  and  S_3
REMARK    3  A    between atoms: S_3  and  C_6
REMARK    4  A    between atoms: C_12  and  C_13
REMARK    5  A    between atoms: C_16  and  O_17
REMARK    6  A    between atoms: O_17  and  C_18
REMARK    7  A    between atoms: C_18  and  C_20
REMARK                            x       y       z     vdW  Elec       q    Type
REMARK                         _______ _______ _______ _____ _____    ______ ____
ROOT
ATOM      1  C   UNL     1       2.864   1.966  -1.769  0.00  0.00    +0.000 C 
ATOM      2  N   UNL     1       3.522   2.354  -2.840  0.00  0.00    +0.000 NA
ATOM      3  N   UNL     1       4.942   2.354  -2.840  0.00  0.00    +0.000 N 
ATOM      4  C   UNL     1       5.677   2.788  -4.037  0.00  0.00    +0.000 C 
ATOM      5  N   UNL     1       5.019   3.176  -5.108  0.00  0.00    +0.000 NA
ATOM      6  C   UNL     1       7.197   2.788  -4.037  0.00  0.00    +0.000 C 
ATOM      7  C   UNL     1       7.877   2.387  -2.929  0.00  0.00    +0.000 C 
ATOM      8  C   UNL     1       7.957   3.237  -5.274  0.00  0.00    +0.000 C 
ATOM      9  O   UNL     1       7.321   3.612  -6.309  0.00  0.00    +0.000 OA
ATOM     10  N   UNL     1       9.427   3.237  -5.274  0.00  0.00    +0.000 NA
ATOM     11  C   UNL     1       5.677   1.921  -1.643  0.00  0.00    +0.000 C 
ATOM     12  S   UNL     1       3.769   1.432  -0.295  0.00  0.00    +0.000 S 
ATOM     13  H   UNL     1       3.999   3.176  -5.108  0.00  0.00    +0.000 HD
ENDROOT
BRANCH   7  14
ATOM     14  C   UNL     1       7.117   1.938  -1.691  0.00  0.00    +0.000 A 
ATOM     15  C   UNL     1       5.677   1.938  -1.691  0.00  0.00    +0.000 A 
ATOM     16  C   UNL     1       4.957   2.363  -2.864  0.00  0.00    +0.000 A 
ATOM     17  C   UNL     1       3.517   2.363  -2.864  0.00  0.00    +0.000 A 
ATOM     18  C   UNL     1       2.796   1.938  -1.691  0.00  0.00    +0.000 A 
ATOM     19 BR   UNL     1       0.836   1.938  -1.691  0.00  0.00    +0.000 Br
ATOM     20  C   UNL     1       7.837   1.513  -0.519  0.00  0.00    +0.000 A 
BRANCH  17  21
ATOM     21  O   UNL     1       2.807   2.782  -4.020  0.00  0.00    +0.000 OA
BRANCH  21  22
ATOM     22  C   UNL     1       3.517   3.201  -5.176  0.00  0.00    +0.000 C 
ATOM     23  O   UNL     1       4.787   3.201  -5.176  0.00  0.00    +0.000 OA
BRANCH  22  24
ATOM     24  C   UNL     1       2.757   3.650  -6.414  0.00  0.00    +0.000 A 
ATOM     25  C   UNL     1       3.477   4.075  -7.587  0.00  0.00    +0.000 A 
ATOM     26  C   UNL     1       4.917   4.075  -7.587  0.00  0.00    +0.000 A 
ATOM     27  C   UNL     1       5.637   4.500  -8.759  0.00  0.00    +0.000 A 
ATOM     28  O   UNL     1       1.411   3.650  -6.414  0.00  0.00    +0.000 OA
ENDBRANCH  22  24
ENDBRANCH  21  22
ENDBRANCH  17  21
ENDBRANCH   7  14
BRANCH   1  29
ATOM     29  S   UNL     1       1.054   1.966  -1.769  0.00  0.00    +0.000 S 
ATOM     30  O   UNL     1       0.544   1.037  -2.873  0.00  0.00    +0.000 OA
ATOM     31  O   UNL     1       0.544   3.387  -2.021  0.00  0.00    +0.000 OA
BRANCH  29  33
ATOM     32  C   UNL     1       0.957  -0.026   0.087  0.00  0.00    +0.000 C 
ATOM     33  C   UNL     1       0.451   1.385  -0.164  0.00  0.00    +0.000 C 
ENDBRANCH  29  33
ENDBRANCH   1  29
TORSDOF 6
