REMARK  Name = 
REMARK  5 active torsions:
REMARK  status: ('A' for Active; 'I' for Inactive)
REMARK    1  A    between atoms: C_7  and  N_8
REMARK    2  A    between atoms: N_8  and  C_9
REMARK    3  A    between atoms: C_9  and  C_10
REMARK    4  A    between atoms: C_10  and  N_11
REMARK    5  A    between atoms: N_19  and  C_20
REMARK                            x       y       z     vdW  Elec       q    Type
REMARK                         _______ _______ _______ _____ _____    ______ ____
ROOT
ATOM      1  N   UNL     1       4.645  -4.157   4.685  0.00  0.00    +0.000 N 
ATOM      2  C   UNL     1       5.380  -3.319   3.727  0.00  0.00    +0.000 C 
ATOM      3  O   UNL     1       4.745  -2.595   2.898  0.00  0.00    +0.000 OA
ATOM      4  N   UNL     1       6.850  -3.319   3.727  0.00  0.00    +0.000 N 
ATOM      5  H   UNL     1       7.360  -2.738   3.062  0.00  0.00    +0.000 HD
ENDROOT
BRANCH   1  12
ATOM      6  N   UNL     1       1.030  -0.090   0.033  0.00  0.00    +0.000 N 
ATOM      7  C   UNL     1       0.295  -0.928   0.991  0.00  0.00    +0.000 A 
ATOM      8  N   UNL     1       0.991  -1.722   1.899  0.00  0.00    +0.000 NA
ATOM      9  C   UNL     1       0.295  -2.516   2.807  0.00  0.00    +0.000 A 
ATOM     10  C   UNL     1       1.015  -3.336   3.746  0.00  0.00    +0.000 A 
ATOM     11  C   UNL     1       2.455  -3.336   3.746  0.00  0.00    +0.000 A 
ATOM     12  C   UNL     1       3.175  -4.157   4.685  0.00  0.00    +0.000 A 
ATOM     13  C   UNL     1       2.455  -4.978   5.624  0.00  0.00    +0.000 A 
ATOM     14  C   UNL     1      -1.145  -2.516   2.807  0.00  0.00    +0.000 A 
ATOM     15  S   UNL     1      -1.420  -0.928   0.991  0.00  0.00    +0.000 S 
ATOM     16  H   UNL     1       0.520   0.492  -0.632  0.00  0.00    +0.000 HD
ATOM     17  H   UNL     1       2.050  -0.090   0.033  0.00  0.00    +0.000 HD
ENDBRANCH   1  12
BRANCH   4  18
ATOM     18  C   UNL     1       7.585  -4.157   4.685  0.00  0.00    +0.000 A 
ATOM     19  C   UNL     1       6.865  -4.978   5.624  0.00  0.00    +0.000 A 
ATOM     20  C   UNL     1       5.425  -4.978   5.624  0.00  0.00    +0.000 A 
ATOM     21  C   UNL     1       4.705  -5.799   6.563  0.00  0.00    +0.000 A 
ATOM     22 CL   UNL     1       2.925  -5.799   6.563  0.00  0.00    +0.000 Cl
ATOM     23  C   UNL     1       5.425  -6.620   7.502  0.00  0.00    +0.000 A 
ATOM     24  C   UNL     1       9.026  -4.157   4.685  0.00  0.00    +0.000 A 
ENDBRANCH   4  18
BRANCH   1  25
ATOM     25  C   UNL     1       5.380  -4.995   5.643  0.00  0.00    +0.000 C 
BRANCH  25  26
ATOM     26  C   UNL     1       6.254  -5.983   4.887  0.00  0.00    +0.000 C 
BRANCH  26  27
ATOM     27  N   UNL     1       7.209  -5.247   4.046  0.00  0.00    +0.000 NA
ATOM     28  C   UNL     1       6.474  -4.409   3.088  0.00  0.00    +0.000 C 
ATOM     29  C   UNL     1       5.601  -5.291   2.210  0.00  0.00    +0.000 C 
ATOM     30  C   UNL     1       4.613  -6.051   3.080  0.00  0.00    +0.000 C 
ATOM     31  C   UNL     1       3.739  -5.064   3.836  0.00  0.00    +0.000 C 
ATOM     32  C   UNL     1       8.055  -6.202   3.315  0.00  0.00    +0.000 C 
ENDBRANCH  26  27
ENDBRANCH  25  26
ENDBRANCH   1  25
TORSDOF 5
