REMARK  Name = 
REMARK  6 active torsions:
REMARK  status: ('A' for Active; 'I' for Inactive)
REMARK    1  A    between atoms: C_1  and  N_2
REMARK    2  A    between atoms: C_8  and  C_9
REMARK    3  A    between atoms: C_11  and  N_12
REMARK    4  A    between atoms: N_15  and  C_16
REMARK    5  A    between atoms: C_20  and  C_21
REMARK    6  A    between atoms: C_28  and  C_29
REMARK                            x       y       z     vdW  Elec       q    Type
REMARK                         _______ _______ _______ _____ _____    ______ ____
ROOT
ATOM      1  C   UNL     1      -0.476   2.629  -3.210  0.00  0.00    +0.000 A 
ATOM      2  C   UNL     1      -0.956   3.480  -4.268  0.00  0.00    +0.000 A 
ATOM      3  C   UNL     1      -1.784   2.933  -5.312  0.00  0.00    +0.000 A 
ATOM      4  C   UNL     1      -2.132   1.536  -5.297  0.00  0.00    +0.000 A 
ATOM      5  C   UNL     1      -1.652   0.685  -4.239  0.00  0.00    +0.000 A 
ATOM      6  C   UNL     1       0.352   3.176  -2.166  0.00  0.00    +0.000 A 
ATOM      7  C   UNL     1       0.859   2.278  -1.049  0.00  0.00    +0.000 C 
ENDROOT
BRANCH   1  15
ATOM      8  C   UNL     1       0.934  -0.071  -0.024  0.00  0.00    +0.000 C 
ATOM      9  N   UNL     1       0.444   0.798  -1.104  0.00  0.00    +0.000 N 
ATOM     10  C   UNL     1      -0.401   0.240  -2.170  0.00  0.00    +0.000 A 
ATOM     11  N   UNL     1      -0.738  -1.112  -2.156  0.00  0.00    +0.000 NA
ATOM     12  C   UNL     1      -1.539  -1.641  -3.166  0.00  0.00    +0.000 A 
ATOM     13  C   UNL     1      -2.019  -0.790  -4.224  0.00  0.00    +0.000 A 
ATOM     14  C   UNL     1      -1.671   0.608  -4.238  0.00  0.00    +0.000 A 
ATOM     15  C   UNL     1      -0.843   1.154  -3.194  0.00  0.00    +0.000 A 
ATOM     16  C   UNL     1      -0.363   0.303  -2.136  0.00  0.00    +0.000 A 
ATOM     17  C   UNL     1      -0.711  -1.094  -2.122  0.00  0.00    +0.000 A 
ATOM     18  C   UNL     1      -2.847  -1.337  -5.268  0.00  0.00    +0.000 A 
ATOM     19  N   UNL     1      -0.866   1.062  -3.193  0.00  0.00    +0.000 NA
ATOM     20  H   UNL     1       0.690   1.787  -1.115  0.00  0.00    +0.000 HD
ENDBRANCH   1  15
BRANCH   3  21
ATOM     21  N   UNL     1      -2.274   3.801  -6.392  0.00  0.00    +0.000 N 
ATOM     22  C   UNL     1      -3.119   3.243  -7.457  0.00  0.00    +0.000 C 
ATOM     23  O   UNL     1      -3.543   3.994  -8.391  0.00  0.00    +0.000 OA
ATOM     24  N   UNL     1      -3.474   1.817  -7.443  0.00  0.00    +0.000 N 
ATOM     25  H   UNL     1      -2.027   4.791  -6.402  0.00  0.00    +0.000 HD
ATOM     26  H   UNL     1      -4.060   1.430  -8.182  0.00  0.00    +0.000 HD
BRANCH  24  27
ATOM     27  C   UNL     1      -2.984   0.949  -6.362  0.00  0.00    +0.000 A 
ATOM     28  C   UNL     1      -2.156   1.495  -5.319  0.00  0.00    +0.000 A 
ATOM     29  C   UNL     1      -1.808   2.893  -5.333  0.00  0.00    +0.000 A 
ATOM     30  C   UNL     1      -0.980   3.440  -4.289  0.00  0.00    +0.000 A 
ATOM     31  C   UNL     1      -0.632   4.837  -4.304  0.00  0.00    +0.000 A 
ATOM     32  C   UNL     1      -3.332  -0.449  -6.348  0.00  0.00    +0.000 A 
BRANCH  31  33
ATOM     33  C   UNL     1      -1.139   5.735  -5.420  0.00  0.00    +0.000 C 
ATOM     34  F   UNL     1      -0.695   5.281  -6.589  0.00  0.00    +0.000 F 
ATOM     35  F   UNL     1      -2.469   5.735  -5.420  0.00  0.00    +0.000 F 
ATOM     36  F   UNL     1      -0.695   6.974  -5.229  0.00  0.00    +0.000 F 
ENDBRANCH  31  33
ENDBRANCH  24  27
ENDBRANCH   3  21
TORSDOF 4
