REMARK  Name = 
REMARK  5 active torsions:
REMARK  status: ('A' for Active; 'I' for Inactive)
REMARK    1  A    between atoms: C_8  and  C_9
REMARK    2  A    between atoms: C_12  and  C_13
REMARK    3  A    between atoms: C_16  and  C_17
REMARK    4  A    between atoms: C_17  and  C_18
REMARK    5  A    between atoms: C_18  and  C_19
REMARK                            x       y       z     vdW  Elec       q    Type
REMARK                         _______ _______ _______ _____ _____    ______ ____
ROOT
ATOM      1  C   UNL     1       2.237   1.427  -2.169  0.00  0.00    +0.000 A 
ATOM      2  N   UNL     1       2.933   2.060  -3.197  0.00  0.00    +0.000 NA
ATOM      3  C   UNL     1       2.237   2.692  -4.224  0.00  0.00    +0.000 A 
ATOM      4  C   UNL     1       0.796   2.692  -4.224  0.00  0.00    +0.000 A 
ATOM      5  N   UNL     1       0.844   1.427  -2.169  0.00  0.00    +0.000 N 
ATOM      6  H   UNL     1       0.334   0.964  -1.417  0.00  0.00    +0.000 HD
ENDROOT
BRANCH   1  14
ATOM      7  F   UNL     1       0.947   0.083   0.014  0.00  0.00    +0.000 F 
ATOM      8  C   UNL     1       2.277   0.083   0.014  0.00  0.00    +0.000 A 
ATOM      9  C   UNL     1       2.997  -0.570   1.076  0.00  0.00    +0.000 A 
ATOM     10  C   UNL     1       2.277  -1.224   2.138  0.00  0.00    +0.000 A 
ATOM     11  C   UNL     1       2.997  -1.878   3.200  0.00  0.00    +0.000 A 
ATOM     12  C   UNL     1       2.277  -2.532   4.262  0.00  0.00    +0.000 A 
ATOM     13 CL   UNL     1       0.497  -2.532   4.262  0.00  0.00    +0.000 Cl
ATOM     14  C   UNL     1       2.997   0.737  -1.048  0.00  0.00    +0.000 A 
ENDBRANCH   1  14
BRANCH   4  15
ATOM     15  C   UNL     1       0.036   2.002  -3.103  0.00  0.00    +0.000 A 
ATOM     16  C   UNL     1      -1.404   2.002  -3.103  0.00  0.00    +0.000 A 
ATOM     17  C   UNL     1      -2.124   2.656  -4.165  0.00  0.00    +0.000 A 
ATOM     18  C   UNL     1      -3.564   2.656  -4.165  0.00  0.00    +0.000 A 
ATOM     19  C   UNL     1      -4.284   2.002  -3.103  0.00  0.00    +0.000 A 
ATOM     20  C   UNL     1       0.757   1.348  -2.041  0.00  0.00    +0.000 A 
BRANCH  18  21
ATOM     21  C   UNL     1      -4.324   3.346  -5.286  0.00  0.00    +0.000 C 
BRANCH  21  22
ATOM     22  C   UNL     1      -5.198   2.331  -6.005  0.00  0.00    +0.000 C 
BRANCH  22  23
ATOM     23  C   UNL     1      -6.186   1.725  -5.021  0.00  0.00    +0.000 A 
ATOM     24  C   UNL     1      -5.706   1.014  -3.865  0.00  0.00    +0.000 A 
ATOM     25  C   UNL     1      -4.290   0.876  -3.641  0.00  0.00    +0.000 A 
ATOM     26  C   UNL     1      -3.810   0.164  -2.484  0.00  0.00    +0.000 A 
ATOM     27  C   UNL     1      -2.394   0.026  -2.260  0.00  0.00    +0.000 A 
ATOM     28  C   UNL     1      -7.602   1.863  -5.245  0.00  0.00    +0.000 A 
ENDBRANCH  22  23
ENDBRANCH  21  22
ENDBRANCH  18  21
ENDBRANCH   4  15
TORSDOF 5
