MODEL 1
REMARK VINA RESULT:    -7.377      0.000      0.000
REMARK INTER + INTRA:          -8.884
REMARK INTER:                  -8.239
REMARK INTRA:                  -0.645
REMARK UNBOUND:                -0.645
REMARK  Name = 
REMARK  2 active torsions:
REMARK  status: ('A' for Active; 'I' for Inactive)
REMARK    1  A    between atoms: N_3  and  C_4
REMARK    2  A    between atoms: N_11  and  C_12
REMARK                            x       y       z     vdW  Elec       q    Type
REMARK                         _______ _______ _______ _____ _____    ______ ____
ROOT
ATOM      1  O   UNL     1      15.647   4.507  26.835  0.00  0.00    +0.000 OA
ATOM      2  C   UNL     1      15.088   4.394  27.971  0.00  0.00    +0.000 C 
ATOM      3  N   UNL     1      14.344   5.527  28.540  0.00  0.00    +0.000 N 
ATOM      4  N   UNL     1      15.186   3.131  28.716  0.00  0.00    +0.000 N 
ATOM      5  H   UNL     1      14.275   6.404  28.022  0.00  0.00    +0.000 HD
ATOM      6  H   UNL     1      14.738   3.041  29.628  0.00  0.00    +0.000 HD
ENDROOT
BRANCH   4   7
ATOM      7  C   UNL     1      15.930   1.998  28.147  0.00  0.00    +0.000 A 
ATOM      8  C   UNL     1      15.269   1.073  27.263  0.00  0.00    +0.000 A 
ATOM      9  C   UNL     1      13.880   1.258  26.936  0.00  0.00    +0.000 A 
ATOM     10  C   UNL     1      13.219   0.333  26.052  0.00  0.00    +0.000 A 
ATOM     11  C   UNL     1      13.948  -0.777  25.496  0.00  0.00    +0.000 A 
ATOM     12  C   UNL     1      17.321   1.813  28.474  0.00  0.00    +0.000 A 
ATOM     13  C   UNL     1      13.250  -1.753  24.563  0.00  0.00    +0.000 C 
ATOM     14  C   UNL     1      12.086  -2.407  25.291  0.00  0.00    +0.000 C 
ATOM     15  C   UNL     1      11.751   0.529  25.707  0.00  0.00    +0.000 C 
ENDBRANCH   4   7
BRANCH   3  16
ATOM     16  C   UNL     1      13.698   5.396  29.854  0.00  0.00    +0.000 A 
ATOM     17  C   UNL     1      12.389   4.805  29.957  0.00  0.00    +0.000 A 
ATOM     18  C   UNL     1      11.713   4.342  28.773  0.00  0.00    +0.000 A 
ATOM     19  C   UNL     1      10.404   3.751  28.876  0.00  0.00    +0.000 A 
ATOM     20  C   UNL     1       9.727   3.288  27.692  0.00  0.00    +0.000 A 
ATOM     21  F   UNL     1      10.312   3.405  26.503  0.00  0.00    +0.000 F 
ATOM     22  C   UNL     1      14.375   5.860  31.038  0.00  0.00    +0.000 A 
ENDBRANCH   3  16
TORSDOF 2
ENDMDL
MODEL 2
REMARK VINA RESULT:    -6.914      2.099      2.508
REMARK INTER + INTRA:          -8.367
REMARK INTER:                  -7.700
REMARK INTRA:                  -0.667
REMARK UNBOUND:                -0.645
REMARK  Name = 
REMARK  2 active torsions:
REMARK  status: ('A' for Active; 'I' for Inactive)
REMARK    1  A    between atoms: N_3  and  C_4
REMARK    2  A    between atoms: N_11  and  C_12
REMARK                            x       y       z     vdW  Elec       q    Type
REMARK                         _______ _______ _______ _____ _____    ______ ____
ROOT
ATOM      1  O   UNL     1      14.668   3.104  31.104  0.00  0.00    +0.000 OA
ATOM      2  C   UNL     1      14.394   4.234  30.591  0.00  0.00    +0.000 C 
ATOM      3  N   UNL     1      13.915   5.332  31.444  0.00  0.00    +0.000 N 
ATOM      4  N   UNL     1      14.558   4.445  29.146  0.00  0.00    +0.000 N 
ATOM      5  H   UNL     1      13.802   5.186  32.448  0.00  0.00    +0.000 HD
ATOM      6  H   UNL     1      14.338   5.352  28.735  0.00  0.00    +0.000 HD
ENDROOT
BRANCH   4   7
ATOM      7  C   UNL     1      15.037   3.348  28.293  0.00  0.00    +0.000 A 
ATOM      8  C   UNL     1      14.094   2.470  27.651  0.00  0.00    +0.000 A 
ATOM      9  C   UNL     1      12.681   2.666  27.844  0.00  0.00    +0.000 A 
ATOM     10  C   UNL     1      11.737   1.788  27.202  0.00  0.00    +0.000 A 
ATOM     11  C   UNL     1      12.207   0.714  26.367  0.00  0.00    +0.000 A 
ATOM     12  C   UNL     1      16.451   3.151  28.100  0.00  0.00    +0.000 A 
ATOM     13  C   UNL     1      11.211  -0.213  25.689  0.00  0.00    +0.000 C 
ATOM     14  C   UNL     1      10.367  -0.910  26.744  0.00  0.00    +0.000 C 
ATOM     15  C   UNL     1      10.245   1.997  27.405  0.00  0.00    +0.000 C 
ENDBRANCH   4   7
BRANCH   3  16
ATOM     16  C   UNL     1      13.598   6.639  30.851  0.00  0.00    +0.000 A 
ATOM     17  C   UNL     1      12.325   6.850  30.212  0.00  0.00    +0.000 A 
ATOM     18  C   UNL     1      11.362   5.781  30.154  0.00  0.00    +0.000 A 
ATOM     19  C   UNL     1      10.089   5.992  29.516  0.00  0.00    +0.000 A 
ATOM     20  C   UNL     1       9.126   4.923  29.457  0.00  0.00    +0.000 A 
ATOM     21  F   UNL     1       9.413   3.740  29.994  0.00  0.00    +0.000 F 
ATOM     22  C   UNL     1      14.561   7.708  30.909  0.00  0.00    +0.000 A 
ENDBRANCH   3  16
TORSDOF 2
ENDMDL
MODEL 3
REMARK VINA RESULT:    -6.531     26.141     28.925
REMARK INTER + INTRA:          -7.939
REMARK INTER:                  -8.361
REMARK INTRA:                   0.422
REMARK UNBOUND:                -0.645
REMARK  Name = 
REMARK  2 active torsions:
REMARK  status: ('A' for Active; 'I' for Inactive)
REMARK    1  A    between atoms: N_3  and  C_4
REMARK    2  A    between atoms: N_11  and  C_12
REMARK                            x       y       z     vdW  Elec       q    Type
REMARK                         _______ _______ _______ _____ _____    ______ ____
ROOT
ATOM      1  O   UNL     1      36.929  11.524  41.725  0.00  0.00    +0.000 OA
ATOM      2  C   UNL     1      37.250  10.759  42.688  0.00  0.00    +0.000 C 
ATOM      3  N   UNL     1      38.286  11.176  43.644  0.00  0.00    +0.000 N 
ATOM      4  N   UNL     1      36.585   9.458  42.847  0.00  0.00    +0.000 N 
ATOM      5  H   UNL     1      38.748  12.080  43.534  0.00  0.00    +0.000 HD
ATOM      6  H   UNL     1      36.842   8.845  43.619  0.00  0.00    +0.000 HD
ENDROOT
BRANCH   4   7
ATOM      7  C   UNL     1      35.548   9.042  41.891  0.00  0.00    +0.000 A 
ATOM      8  C   UNL     1      35.307   7.642  41.656  0.00  0.00    +0.000 A 
ATOM      9  C   UNL     1      36.080   6.650  42.356  0.00  0.00    +0.000 A 
ATOM     10  C   UNL     1      35.839   5.250  42.121  0.00  0.00    +0.000 A 
ATOM     11  C   UNL     1      34.825   4.842  41.185  0.00  0.00    +0.000 A 
ATOM     12  C   UNL     1      34.774  10.034  41.189  0.00  0.00    +0.000 A 
ATOM     13  C   UNL     1      34.570   3.364  40.937  0.00  0.00    +0.000 C 
ATOM     14  C   UNL     1      35.839   2.712  40.411  0.00  0.00    +0.000 C 
ATOM     15  C   UNL     1      36.656   4.203  42.862  0.00  0.00    +0.000 C 
ENDBRANCH   4   7
BRANCH   3  16
ATOM     16  C   UNL     1      38.657  10.291  44.757  0.00  0.00    +0.000 A 
ATOM     17  C   UNL     1      38.181  10.569  46.087  0.00  0.00    +0.000 A 
ATOM     18  C   UNL     1      37.341  11.715  46.326  0.00  0.00    +0.000 A 
ATOM     19  C   UNL     1      36.863  11.992  47.656  0.00  0.00    +0.000 A 
ATOM     20  C   UNL     1      36.023  13.138  47.895  0.00  0.00    +0.000 A 
ATOM     21  F   UNL     1      35.687  13.938  46.888  0.00  0.00    +0.000 F 
ATOM     22  C   UNL     1      39.498   9.146  44.518  0.00  0.00    +0.000 A 
ENDBRANCH   3  16
TORSDOF 2
ENDMDL
MODEL 4
REMARK VINA RESULT:    -6.512      3.033      7.024
REMARK INTER + INTRA:          -7.918
REMARK INTER:                  -7.249
REMARK INTRA:                  -0.669
REMARK UNBOUND:                -0.645
REMARK  Name = 
REMARK  2 active torsions:
REMARK  status: ('A' for Active; 'I' for Inactive)
REMARK    1  A    between atoms: N_3  and  C_4
REMARK    2  A    between atoms: N_11  and  C_12
REMARK                            x       y       z     vdW  Elec       q    Type
REMARK                         _______ _______ _______ _____ _____    ______ ____
ROOT
ATOM      1  O   UNL     1      10.649   2.195  23.912  0.00  0.00    +0.000 OA
ATOM      2  C   UNL     1      11.166   1.141  24.400  0.00  0.00    +0.000 C 
ATOM      3  N   UNL     1      12.325   0.519  23.744  0.00  0.00    +0.000 N 
ATOM      4  N   UNL     1      10.605   0.545  25.621  0.00  0.00    +0.000 N 
ATOM      5  H   UNL     1      12.715   0.933  22.896  0.00  0.00    +0.000 HD
ATOM      6  H   UNL     1      11.020  -0.300  26.012  0.00  0.00    +0.000 HD
ENDROOT
BRANCH   4   7
ATOM      7  C   UNL     1       9.446   1.167  26.276  0.00  0.00    +0.000 A 
ATOM      8  C   UNL     1       9.645   2.146  27.313  0.00  0.00    +0.000 A 
ATOM      9  C   UNL     1      10.979   2.517  27.707  0.00  0.00    +0.000 A 
ATOM     10  C   UNL     1      11.178   3.496  28.744  0.00  0.00    +0.000 A 
ATOM     11  C   UNL     1      10.042   4.105  29.387  0.00  0.00    +0.000 A 
ATOM     12  C   UNL     1       8.110   0.797  25.882  0.00  0.00    +0.000 A 
ATOM     13  C   UNL     1      10.252   5.139  30.481  0.00  0.00    +0.000 C 
ATOM     14  C   UNL     1      11.031   4.513  31.627  0.00  0.00    +0.000 C 
ATOM     15  C   UNL     1      12.587   3.887  29.160  0.00  0.00    +0.000 C 
ENDBRANCH   4   7
BRANCH   3  16
ATOM     16  C   UNL     1      12.923  -0.699  24.309  0.00  0.00    +0.000 A 
ATOM     17  C   UNL     1      13.858  -0.604  25.399  0.00  0.00    +0.000 A 
ATOM     18  C   UNL     1      14.208   0.686  25.936  0.00  0.00    +0.000 A 
ATOM     19  C   UNL     1      15.143   0.782  27.028  0.00  0.00    +0.000 A 
ATOM     20  C   UNL     1      15.493   2.071  27.565  0.00  0.00    +0.000 A 
ATOM     21  F   UNL     1      14.952   3.174  27.054  0.00  0.00    +0.000 F 
ATOM     22  C   UNL     1      12.573  -1.989  23.771  0.00  0.00    +0.000 A 
ENDBRANCH   3  16
TORSDOF 2
ENDMDL
MODEL 5
REMARK VINA RESULT:    -6.509      3.002      3.952
REMARK INTER + INTRA:          -7.914
REMARK INTER:                  -7.511
REMARK INTRA:                  -0.403
REMARK UNBOUND:                -0.645
REMARK  Name = 
REMARK  2 active torsions:
REMARK  status: ('A' for Active; 'I' for Inactive)
REMARK    1  A    between atoms: N_3  and  C_4
REMARK    2  A    between atoms: N_11  and  C_12
REMARK                            x       y       z     vdW  Elec       q    Type
REMARK                         _______ _______ _______ _____ _____    ______ ____
ROOT
ATOM      1  O   UNL     1      13.095   3.521  30.611  0.00  0.00    +0.000 OA
ATOM      2  C   UNL     1      12.370   4.216  29.832  0.00  0.00    +0.000 C 
ATOM      3  N   UNL     1      11.217   4.956  30.366  0.00  0.00    +0.000 N 
ATOM      4  N   UNL     1      12.683   4.279  28.398  0.00  0.00    +0.000 N 
ATOM      5  H   UNL     1      11.000   4.913  31.363  0.00  0.00    +0.000 HD
ATOM      6  H   UNL     1      12.100   4.836  27.773  0.00  0.00    +0.000 HD
ENDROOT
BRANCH   4   7
ATOM      7  C   UNL     1      13.835   3.538  27.864  0.00  0.00    +0.000 A 
ATOM      8  C   UNL     1      13.652   2.219  27.317  0.00  0.00    +0.000 A 
ATOM      9  C   UNL     1      12.341   1.625  27.292  0.00  0.00    +0.000 A 
ATOM     10  C   UNL     1      12.158   0.306  26.744  0.00  0.00    +0.000 A 
ATOM     11  C   UNL     1      13.286  -0.419  26.222  0.00  0.00    +0.000 A 
ATOM     12  C   UNL     1      15.147   4.132  27.888  0.00  0.00    +0.000 A 
ATOM     13  C   UNL     1      13.093  -1.812  25.644  0.00  0.00    +0.000 C 
ATOM     14  C   UNL     1      12.529  -2.732  26.715  0.00  0.00    +0.000 C 
ATOM     15  C   UNL     1      10.772  -0.320  26.718  0.00  0.00    +0.000 C 
ENDBRANCH   4   7
BRANCH   3  16
ATOM     16  C   UNL     1      10.378   5.759  29.465  0.00  0.00    +0.000 A 
ATOM     17  C   UNL     1      10.680   7.150  29.250  0.00  0.00    +0.000 A 
ATOM     18  C   UNL     1      11.803   7.755  29.917  0.00  0.00    +0.000 A 
ATOM     19  C   UNL     1      12.105   9.147  29.701  0.00  0.00    +0.000 A 
ATOM     20  C   UNL     1      13.229   9.752  30.369  0.00  0.00    +0.000 A 
ATOM     21  F   UNL     1      13.988   9.025  31.184  0.00  0.00    +0.000 F 
ATOM     22  C   UNL     1       9.254   5.154  28.798  0.00  0.00    +0.000 A 
ENDBRANCH   3  16
TORSDOF 2
ENDMDL
MODEL 6
REMARK VINA RESULT:    -6.474     26.861     29.726
REMARK INTER + INTRA:          -7.876
REMARK INTER:                  -7.546
REMARK INTRA:                  -0.330
REMARK UNBOUND:                -0.645
REMARK  Name = 
REMARK  2 active torsions:
REMARK  status: ('A' for Active; 'I' for Inactive)
REMARK    1  A    between atoms: N_3  and  C_4
REMARK    2  A    between atoms: N_11  and  C_12
REMARK                            x       y       z     vdW  Elec       q    Type
REMARK                         _______ _______ _______ _____ _____    ______ ____
ROOT
ATOM      1  O   UNL     1      35.970  10.092  44.754  0.00  0.00    +0.000 OA
ATOM      2  C   UNL     1      37.114  10.033  44.204  0.00  0.00    +0.000 C 
ATOM      3  N   UNL     1      38.317  10.393  44.969  0.00  0.00    +0.000 N 
ATOM      4  N   UNL     1      37.235   9.606  42.803  0.00  0.00    +0.000 N 
ATOM      5  H   UNL     1      38.234  10.689  45.942  0.00  0.00    +0.000 HD
ATOM      6  H   UNL     1      38.154   9.559  42.362  0.00  0.00    +0.000 HD
ENDROOT
BRANCH   4   7
ATOM      7  C   UNL     1      36.033   9.246  42.038  0.00  0.00    +0.000 A 
ATOM      8  C   UNL     1      35.692   7.861  41.842  0.00  0.00    +0.000 A 
ATOM      9  C   UNL     1      36.528   6.828  42.395  0.00  0.00    +0.000 A 
ATOM     10  C   UNL     1      36.187   5.443  42.198  0.00  0.00    +0.000 A 
ATOM     11  C   UNL     1      35.010   5.091  41.449  0.00  0.00    +0.000 A 
ATOM     12  C   UNL     1      35.195  10.279  41.485  0.00  0.00    +0.000 A 
ATOM     13  C   UNL     1      34.650   3.628  41.242  0.00  0.00    +0.000 C 
ATOM     14  C   UNL     1      35.778   2.928  40.502  0.00  0.00    +0.000 C 
ATOM     15  C   UNL     1      37.071   4.352  42.783  0.00  0.00    +0.000 C 
ENDBRANCH   4   7
BRANCH   3  16
ATOM     16  C   UNL     1      39.640  10.325  44.333  0.00  0.00    +0.000 A 
ATOM     17  C   UNL     1      40.557   9.274  44.688  0.00  0.00    +0.000 A 
ATOM     18  C   UNL     1      40.178   8.288  45.667  0.00  0.00    +0.000 A 
ATOM     19  C   UNL     1      41.094   7.235  46.021  0.00  0.00    +0.000 A 
ATOM     20  C   UNL     1      40.715   6.249  47.000  0.00  0.00    +0.000 A 
ATOM     21  F   UNL     1      39.518   6.310  47.576  0.00  0.00    +0.000 F 
ATOM     22  C   UNL     1      40.020  11.312  43.354  0.00  0.00    +0.000 A 
ENDBRANCH   3  16
TORSDOF 2
ENDMDL
MODEL 7
REMARK VINA RESULT:    -6.378      3.817      5.109
REMARK INTER + INTRA:          -7.769
REMARK INTER:                  -7.530
REMARK INTRA:                  -0.238
REMARK UNBOUND:                -0.645
REMARK  Name = 
REMARK  2 active torsions:
REMARK  status: ('A' for Active; 'I' for Inactive)
REMARK    1  A    between atoms: N_3  and  C_4
REMARK    2  A    between atoms: N_11  and  C_12
REMARK                            x       y       z     vdW  Elec       q    Type
REMARK                         _______ _______ _______ _____ _____    ______ ____
ROOT
ATOM      1  O   UNL     1      10.815   5.488  31.133  0.00  0.00    +0.000 OA
ATOM      2  C   UNL     1      11.532   6.159  30.326  0.00  0.00    +0.000 C 
ATOM      3  N   UNL     1      12.270   7.337  30.804  0.00  0.00    +0.000 N 
ATOM      4  N   UNL     1      11.623   5.757  28.916  0.00  0.00    +0.000 N 
ATOM      5  H   UNL     1      12.207   7.617  31.784  0.00  0.00    +0.000 HD
ATOM      6  H   UNL     1      12.198   6.295  28.268  0.00  0.00    +0.000 HD
ENDROOT
BRANCH   4   7
ATOM      7  C   UNL     1      10.885   4.578  28.438  0.00  0.00    +0.000 A 
ATOM      8  C   UNL     1      11.602   3.418  27.977  0.00  0.00    +0.000 A 
ATOM      9  C   UNL     1      13.042   3.411  27.984  0.00  0.00    +0.000 A 
ATOM     10  C   UNL     1      13.759   2.251  27.522  0.00  0.00    +0.000 A 
ATOM     11  C   UNL     1      13.036   1.097  27.054  0.00  0.00    +0.000 A 
ATOM     12  C   UNL     1       9.445   4.584  28.432  0.00  0.00    +0.000 A 
ATOM     13  C   UNL     1      13.793  -0.128  26.568  0.00  0.00    +0.000 C 
ATOM     14  C   UNL     1      14.674   0.255  25.390  0.00  0.00    +0.000 C 
ATOM     15  C   UNL     1      15.279   2.244  27.530  0.00  0.00    +0.000 C 
ENDBRANCH   4   7
BRANCH   3  16
ATOM     16  C   UNL     1      13.098   8.113  29.870  0.00  0.00    +0.000 A 
ATOM     17  C   UNL     1      12.555   9.279  29.224  0.00  0.00    +0.000 A 
ATOM     18  C   UNL     1      11.200   9.685  29.491  0.00  0.00    +0.000 A 
ATOM     19  C   UNL     1      10.656  10.852  28.845  0.00  0.00    +0.000 A 
ATOM     20  C   UNL     1       9.301  11.257  29.112  0.00  0.00    +0.000 A 
ATOM     21  F   UNL     1       8.551  10.555  29.957  0.00  0.00    +0.000 F 
ATOM     22  C   UNL     1      14.454   7.706  29.602  0.00  0.00    +0.000 A 
ENDBRANCH   3  16
TORSDOF 2
ENDMDL
MODEL 8
REMARK VINA RESULT:    -6.335      2.917      7.004
REMARK INTER + INTRA:          -7.720
REMARK INTER:                  -7.073
REMARK INTRA:                  -0.647
REMARK UNBOUND:                -0.645
REMARK  Name = 
REMARK  2 active torsions:
REMARK  status: ('A' for Active; 'I' for Inactive)
REMARK    1  A    between atoms: N_3  and  C_4
REMARK    2  A    between atoms: N_11  and  C_12
REMARK                            x       y       z     vdW  Elec       q    Type
REMARK                         _______ _______ _______ _____ _____    ______ ____
ROOT
ATOM      1  O   UNL     1      10.675  -0.142  27.695  0.00  0.00    +0.000 OA
ATOM      2  C   UNL     1      11.513   0.153  26.785  0.00  0.00    +0.000 C 
ATOM      3  N   UNL     1      12.494  -0.846  26.339  0.00  0.00    +0.000 N 
ATOM      4  N   UNL     1      11.500   1.492  26.180  0.00  0.00    +0.000 N 
ATOM      5  H   UNL     1      12.503  -1.777  26.759  0.00  0.00    +0.000 HD
ATOM      6  H   UNL     1      12.172   1.728  25.450  0.00  0.00    +0.000 HD
ENDROOT
BRANCH   4   7
ATOM      7  C   UNL     1      10.519   2.491  26.627  0.00  0.00    +0.000 A 
ATOM      8  C   UNL     1      10.841   3.382  27.711  0.00  0.00    +0.000 A 
ATOM      9  C   UNL     1      12.124   3.294  28.358  0.00  0.00    +0.000 A 
ATOM     10  C   UNL     1      12.446   4.185  29.442  0.00  0.00    +0.000 A 
ATOM     11  C   UNL     1      11.485   5.164  29.880  0.00  0.00    +0.000 A 
ATOM     12  C   UNL     1       9.235   2.579  25.979  0.00  0.00    +0.000 A 
ATOM     13  C   UNL     1      11.825   6.104  31.025  0.00  0.00    +0.000 C 
ATOM     14  C   UNL     1      12.120   5.293  32.276  0.00  0.00    +0.000 C 
ATOM     15  C   UNL     1      13.802   4.092  30.125  0.00  0.00    +0.000 C 
ENDBRANCH   4   7
BRANCH   3  16
ATOM     16  C   UNL     1      13.463  -0.506  25.287  0.00  0.00    +0.000 A 
ATOM     17  C   UNL     1      14.661   0.220  25.619  0.00  0.00    +0.000 A 
ATOM     18  C   UNL     1      14.910   0.613  26.982  0.00  0.00    +0.000 A 
ATOM     19  C   UNL     1      16.109   1.338  27.315  0.00  0.00    +0.000 A 
ATOM     20  C   UNL     1      16.358   1.730  28.678  0.00  0.00    +0.000 A 
ATOM     21  F   UNL     1      15.482   1.422  29.630  0.00  0.00    +0.000 F 
ATOM     22  C   UNL     1      13.213  -0.898  23.923  0.00  0.00    +0.000 A 
ENDBRANCH   3  16
TORSDOF 2
ENDMDL
MODEL 9
REMARK VINA RESULT:    -6.326      2.301      3.347
REMARK INTER + INTRA:          -7.710
REMARK INTER:                  -7.608
REMARK INTRA:                  -0.103
REMARK UNBOUND:                -0.645
REMARK  Name = 
REMARK  2 active torsions:
REMARK  status: ('A' for Active; 'I' for Inactive)
REMARK    1  A    between atoms: N_3  and  C_4
REMARK    2  A    between atoms: N_11  and  C_12
REMARK                            x       y       z     vdW  Elec       q    Type
REMARK                         _______ _______ _______ _____ _____    ______ ____
ROOT
ATOM      1  O   UNL     1      15.499   4.488  26.982  0.00  0.00    +0.000 OA
ATOM      2  C   UNL     1      14.470   4.301  27.704  0.00  0.00    +0.000 C 
ATOM      3  N   UNL     1      13.622   5.441  28.084  0.00  0.00    +0.000 N 
ATOM      4  N   UNL     1      14.127   2.947  28.159  0.00  0.00    +0.000 N 
ATOM      5  H   UNL     1      13.860   6.382  27.767  0.00  0.00    +0.000 HD
ATOM      6  H   UNL     1      13.301   2.797  28.738  0.00  0.00    +0.000 HD
ENDROOT
BRANCH   4   7
ATOM      7  C   UNL     1      14.974   1.807  27.779  0.00  0.00    +0.000 A 
ATOM      8  C   UNL     1      14.547   0.907  26.740  0.00  0.00    +0.000 A 
ATOM      9  C   UNL     1      13.290   1.122  26.072  0.00  0.00    +0.000 A 
ATOM     10  C   UNL     1      12.863   0.222  25.033  0.00  0.00    +0.000 A 
ATOM     11  C   UNL     1      13.693  -0.894  24.661  0.00  0.00    +0.000 A 
ATOM     12  C   UNL     1      16.233   1.592  28.447  0.00  0.00    +0.000 A 
ATOM     13  C   UNL     1      13.242  -1.845  23.564  0.00  0.00    +0.000 C 
ATOM     14  C   UNL     1      11.921  -2.485  23.960  0.00  0.00    +0.000 C 
ATOM     15  C   UNL     1      11.535   0.450  24.328  0.00  0.00    +0.000 C 
ENDBRANCH   4   7
BRANCH   3  16
ATOM     16  C   UNL     1      12.432   5.225  28.919  0.00  0.00    +0.000 A 
ATOM     17  C   UNL     1      12.331   5.861  30.206  0.00  0.00    +0.000 A 
ATOM     18  C   UNL     1      13.397   6.708  30.677  0.00  0.00    +0.000 A 
ATOM     19  C   UNL     1      13.296   7.345  31.964  0.00  0.00    +0.000 A 
ATOM     20  C   UNL     1      14.361   8.192  32.435  0.00  0.00    +0.000 A 
ATOM     21  F   UNL     1      15.438   8.387  31.679  0.00  0.00    +0.000 F 
ATOM     22  C   UNL     1      11.366   4.377  28.448  0.00  0.00    +0.000 A 
ENDBRANCH   3  16
TORSDOF 2
ENDMDL
MODEL 10
REMARK VINA RESULT:    -6.306      3.557      7.527
REMARK INTER + INTRA:          -7.687
REMARK INTER:                  -7.045
REMARK INTRA:                  -0.643
REMARK UNBOUND:                -0.645
REMARK  Name = 
REMARK  2 active torsions:
REMARK  status: ('A' for Active; 'I' for Inactive)
REMARK    1  A    between atoms: N_3  and  C_4
REMARK    2  A    between atoms: N_11  and  C_12
REMARK                            x       y       z     vdW  Elec       q    Type
REMARK                         _______ _______ _______ _____ _____    ______ ____
ROOT
ATOM      1  O   UNL     1       9.968  -1.509  28.375  0.00  0.00    +0.000 OA
ATOM      2  C   UNL     1      10.349  -1.534  27.162  0.00  0.00    +0.000 C 
ATOM      3  N   UNL     1      11.180  -2.645  26.675  0.00  0.00    +0.000 N 
ATOM      4  N   UNL     1       9.959  -0.453  26.247  0.00  0.00    +0.000 N 
ATOM      5  H   UNL     1      11.451  -3.396  27.311  0.00  0.00    +0.000 HD
ATOM      6  H   UNL     1      10.264  -0.473  25.274  0.00  0.00    +0.000 HD
ENDROOT
BRANCH   4   7
ATOM      7  C   UNL     1       9.128   0.658  26.734  0.00  0.00    +0.000 A 
ATOM      8  C   UNL     1       9.749   1.828  27.299  0.00  0.00    +0.000 A 
ATOM      9  C   UNL     1      11.183   1.910  27.386  0.00  0.00    +0.000 A 
ATOM     10  C   UNL     1      11.804   3.080  27.951  0.00  0.00    +0.000 A 
ATOM     11  C   UNL     1      10.991   4.168  28.428  0.00  0.00    +0.000 A 
ATOM     12  C   UNL     1       7.692   0.576  26.646  0.00  0.00    +0.000 A 
ATOM     13  C   UNL     1      11.647   5.403  29.024  0.00  0.00    +0.000 C 
ATOM     14  C   UNL     1      12.473   5.003  30.236  0.00  0.00    +0.000 C 
ATOM     15  C   UNL     1      13.320   3.167  28.043  0.00  0.00    +0.000 C 
ENDBRANCH   4   7
BRANCH   3  16
ATOM     16  C   UNL     1      11.621  -2.673  25.273  0.00  0.00    +0.000 A 
ATOM     17  C   UNL     1      12.773  -1.913  24.865  0.00  0.00    +0.000 A 
ATOM     18  C   UNL     1      13.495  -1.125  25.831  0.00  0.00    +0.000 A 
ATOM     19  C   UNL     1      14.648  -0.366  25.423  0.00  0.00    +0.000 A 
ATOM     20  C   UNL     1      15.370   0.423  26.389  0.00  0.00    +0.000 A 
ATOM     21  F   UNL     1      14.971   0.449  27.657  0.00  0.00    +0.000 F 
ATOM     22  C   UNL     1      10.898  -3.461  24.307  0.00  0.00    +0.000 A 
ENDBRANCH   3  16
TORSDOF 2
ENDMDL
