REMARK  Name = 
REMARK  7 active torsions:
REMARK  status: ('A' for Active; 'I' for Inactive)
REMARK    1  A    between atoms: C_1  and  O_2
REMARK    2  A    between atoms: O_2  and  C_3
REMARK    3  A    between atoms: C_8  and  O_9
REMARK    4  A    between atoms: O_9  and  C_10
REMARK    5  A    between atoms: C_11  and  O_12
REMARK    6  A    between atoms: C_27  and  C_28
REMARK    7  A    between atoms: C_27  and  C_29
REMARK                            x       y       z     vdW  Elec       q    Type
REMARK                         _______ _______ _______ _____ _____    ______ ____
ROOT
ATOM      1  C   UNL     1       0.789  -2.451  -0.320  0.00  0.00    +0.000 A 
ATOM      2  C   UNL     1       0.309  -3.750   0.076  0.00  0.00    +0.000 A 
ATOM      3  C   UNL     1      -0.519  -3.886   1.246  0.00  0.00    +0.000 A 
ATOM      4  C   UNL     1      -0.867  -2.723   2.021  0.00  0.00    +0.000 A 
ATOM      5  C   UNL     1      -0.387  -1.424   1.626  0.00  0.00    +0.000 A 
ATOM      6  C   UNL     1       1.617  -2.315  -1.490  0.00  0.00    +0.000 A 
ATOM      7  C   UNL     1      -1.741  -2.866   3.257  0.00  0.00    +0.000 C 
ATOM      8  C   UNL     1      -1.956  -1.500   3.886  0.00  0.00    +0.000 C 
ATOM      9  O   UNL     1      -1.430  -0.468   3.362  0.00  0.00    +0.000 OA
ATOM     10  C   UNL     1      -2.801  -1.366   5.143  0.00  0.00    +0.000 A 
ATOM     11  C   UNL     1      -3.005  -0.072   5.740  0.00  0.00    +0.000 A 
ATOM     12  C   UNL     1      -2.409   1.097   5.145  0.00  0.00    +0.000 A 
ATOM     13  C   UNL     1      -2.613   2.392   5.742  0.00  0.00    +0.000 A 
ATOM     14  C   UNL     1      -3.413   2.518   6.933  0.00  0.00    +0.000 A 
ATOM     15  C   UNL     1      -3.397  -2.535   5.737  0.00  0.00    +0.000 A 
ATOM     16  O   UNL     1      -3.196  -3.812   5.149  0.00  0.00    +0.000 OA
ATOM     17  C   UNL     1      -3.083  -3.459   2.862  0.00  0.00    +0.000 C 
ATOM     18  C   UNL     1      -3.957  -3.603   4.097  0.00  0.00    +0.000 C 
ATOM     19  O   UNL     1      -0.992  -5.167   1.637  0.00  0.00    +0.000 OA
ATOM     20  C   UNL     1      -3.628   3.885   7.562  0.00  0.00    +0.000 C 
ATOM     21  C   UNL     1      -3.065   4.989   7.001  0.00  0.00    +0.000 C 
ATOM     22  C   UNL     1      -3.281   6.355   7.631  0.00  0.00    +0.000 C 
ATOM     23  C   UNL     1      -3.965   7.272   6.630  0.00  0.00    +0.000 C 
ATOM     24  C   UNL     1      -4.154   6.212   8.866  0.00  0.00    +0.000 C 
ATOM     25  O   UNL     1      -2.025   3.544   5.156  0.00  0.00    +0.000 OA
ENDROOT
BRANCH   1  27
ATOM     26  C   UNL     1       0.919  -0.024   0.054  0.00  0.00    +0.000 C 
ATOM     27  O   UNL     1       0.446  -1.304   0.444  0.00  0.00    +0.000 OA
ENDBRANCH   1  27
BRANCH   6  28
ATOM     28  O   UNL     1       2.090  -1.035  -1.880  0.00  0.00    +0.000 OA
ATOM     29  C   UNL     1       2.907  -0.901  -3.035  0.00  0.00    +0.000 C 
ENDBRANCH   6  28
BRANCH   7  30
ATOM     30  O   UNL     1      -1.102  -3.723   4.192  0.00  0.00    +0.000 OA
ATOM     31  H   UNL     1      -0.960  -4.622   3.778  0.00  0.00    +0.000 HD
ENDBRANCH   7  30
TORSDOF 3
