REMARK  Name = 
REMARK  10 active torsions:
REMARK  status: ('A' for Active; 'I' for Inactive)
REMARK    1  A    between atoms: C_1  and  C_2
REMARK    2  A    between atoms: C_2  and  O_3
REMARK    3  A    between atoms: O_3  and  C_4
REMARK    4  A    between atoms: C_4  and  C_6
REMARK    5  A    between atoms: C_7  and  S_8
REMARK    6  A    between atoms: S_8  and  C_9
REMARK    7  A    between atoms: C_9  and  C_10
REMARK    8  A    between atoms: C_10  and  N_11
REMARK    9  A    between atoms: N_16  and  C_17
REMARK   10  A    between atoms: N_25  and  C_26
REMARK                            x       y       z     vdW  Elec       q    Type
REMARK                         _______ _______ _______ _____ _____    ______ ____
ROOT
ATOM      1  C   UNL     1       2.834   1.858   3.539  0.00  0.00    +0.000 A 
ATOM      2  C   UNL     1       4.250   2.044   3.725  0.00  0.00    +0.000 A 
ATOM      3  N   UNL     1       4.715   2.970   4.656  0.00  0.00    +0.000 N 
ATOM      4  C   UNL     1       6.084   3.150   4.836  0.00  0.00    +0.000 A 
ATOM      5  S   UNL     1       7.137   2.281   3.964  0.00  0.00    +0.000 S 
ATOM      6  N   UNL     1       6.548   4.076   5.767  0.00  0.00    +0.000 N 
ATOM      7  C   UNL     1       1.899   2.630   4.315  0.00  0.00    +0.000 A 
ATOM      8  O   UNL     1       0.649   2.466   4.150  0.00  0.00    +0.000 OA
ENDROOT
BRANCH   3   9
ATOM      9  C   UNL     1       3.759   3.758   5.448  0.00  0.00    +0.000 A 
ATOM     10  C   UNL     1       2.343   3.573   5.261  0.00  0.00    +0.000 A 
ATOM     11  C   UNL     1       1.863   2.615   4.299  0.00  0.00    +0.000 A 
ATOM     12  C   UNL     1       0.447   2.429   4.112  0.00  0.00    +0.000 A 
ATOM     13  C   UNL     1      -0.033   1.471   3.150  0.00  0.00    +0.000 A 
ATOM     14  C   UNL     1       4.239   4.716   6.410  0.00  0.00    +0.000 A 
ENDBRANCH   3   9
BRANCH   6  15
ATOM     15  C   UNL     1       7.994   4.266   5.957  0.00  0.00    +0.000 A 
ATOM     16  C   UNL     1       8.474   5.224   6.920  0.00  0.00    +0.000 A 
ATOM     17  C   UNL     1       7.538   5.996   7.695  0.00  0.00    +0.000 A 
ATOM     18  C   UNL     1       8.018   6.954   8.658  0.00  0.00    +0.000 A 
ATOM     19  C   UNL     1       7.082   7.726   9.433  0.00  0.00    +0.000 A 
ATOM     20  C   UNL     1       8.929   3.493   5.181  0.00  0.00    +0.000 A 
ENDBRANCH   6  15
BRANCH   1  21
ATOM     21  C   UNL     1       2.328   0.847   2.523  0.00  0.00    +0.000 C 
ATOM     22  O   UNL     1       3.154   0.165   1.839  0.00  0.00    +0.000 OA
BRANCH  21  23
ATOM     23  O   UNL     1       0.932   0.664   2.339  0.00  0.00    +0.000 OA
BRANCH  23  25
ATOM     24  C   UNL     1       0.965   0.093   0.007  0.00  0.00    +0.000 C 
ATOM     25  C   UNL     1       0.458  -0.281   1.390  0.00  0.00    +0.000 C 
ENDBRANCH  23  25
ENDBRANCH  21  23
ENDBRANCH   1  21
BRANCH   2  26
ATOM     26  S   UNL     1       5.427   1.073   2.750  0.00  0.00    +0.000 S 
BRANCH  26  27
ATOM     27  C   UNL     1       4.522  -0.033   1.639  0.00  0.00    +0.000 C 
BRANCH  27  28
ATOM     28  C   UNL     1       3.648  -0.969   2.458  0.00  0.00    +0.000 C 
BRANCH  28  29
ATOM     29  N   UNL     1       2.692  -0.181   3.250  0.00  0.00    +0.000 NA
ATOM     30  C   UNL     1       3.427   0.717   4.152  0.00  0.00    +0.000 C 
ATOM     31  C   UNL     1       4.301  -0.105   5.085  0.00  0.00    +0.000 C 
ATOM     32  C   UNL     1       5.289  -0.921   4.266  0.00  0.00    +0.000 C 
ATOM     33  C   UNL     1       1.847  -1.086   4.041  0.00  0.00    +0.000 C 
ENDBRANCH  28  29
ENDBRANCH  27  28
ENDBRANCH  26  27
ENDBRANCH   2  26
TORSDOF 9
