REMARK  Name = 
REMARK  5 active torsions:
REMARK  status: ('A' for Active; 'I' for Inactive)
REMARK    1  A    between atoms: N_1  and  S_2
REMARK    2  A    between atoms: S_2  and  C_5
REMARK    3  A    between atoms: C_8  and  S_9
REMARK    4  A    between atoms: S_9  and  C_10
REMARK    5  A    between atoms: C_19  and  N_20
REMARK                            x       y       z     vdW  Elec       q    Type
REMARK                         _______ _______ _______ _____ _____    ______ ____
ROOT
ATOM      1  C   UNL     1       1.065   2.146   1.874  0.00  0.00    +0.000 A 
ATOM      2  C   UNL     1       0.717   3.449   2.379  0.00  0.00    +0.000 A 
ATOM      3  C   UNL     1      -0.110   4.328   1.594  0.00  0.00    +0.000 A 
ATOM      4  C   UNL     1      -0.458   5.631   2.099  0.00  0.00    +0.000 A 
ATOM      5  C   UNL     1       0.022   6.055   3.389  0.00  0.00    +0.000 A 
ATOM      6  C   UNL     1       1.893   1.267   2.659  0.00  0.00    +0.000 A 
ENDROOT
BRANCH   1   7
ATOM      7  S   UNL     1       0.462   1.613   0.253  0.00  0.00    +0.000 S 
ATOM      8  O   UNL     1       0.972   2.575  -0.823  0.00  0.00    +0.000 OA
ATOM      9  O   UNL     1      -1.068   1.613   0.253  0.00  0.00    +0.000 OA
BRANCH   7  10
ATOM     10  N   UNL     1       1.049  -0.012  -0.087  0.00  0.00    +0.000 NA
ATOM     11  H   UNL     1       0.709  -0.312  -1.000  0.00  0.00    +0.000 HD
ATOM     12  H   UNL     1       2.069  -0.012  -0.087  0.00  0.00    +0.000 HD
ENDBRANCH   7  10
ENDBRANCH   1   7
BRANCH   5  13
ATOM     13  N   UNL     1      -0.333   7.385   3.904  0.00  0.00    +0.000 N 
ATOM     14  O   UNL     1      -1.038   8.133   3.236  0.00  0.00    +0.000 OA
ATOM     15  O   UNL     1       0.123   7.789   5.132  0.00  0.00    +0.000 OA
ENDBRANCH   5  13
BRANCH   4  16
ATOM     16  S   UNL     1      -1.499   6.736   1.113  0.00  0.00    +0.000 S 
BRANCH  16  17
ATOM     17  C   UNL     1      -1.936   5.922  -0.444  0.00  0.00    +0.000 A 
ATOM     18  N   UNL     1      -2.737   6.582  -1.373  0.00  0.00    +0.000 NA
ATOM     19  C   UNL     1      -3.073   5.956  -2.571  0.00  0.00    +0.000 A 
ATOM     20  C   UNL     1      -3.901   6.638  -3.532  0.00  0.00    +0.000 A 
ATOM     21  C   UNL     1      -4.382   7.967  -3.255  0.00  0.00    +0.000 A 
ATOM     22  C   UNL     1      -5.210   8.649  -4.216  0.00  0.00    +0.000 A 
ATOM     23  C   UNL     1      -5.690   9.978  -3.938  0.00  0.00    +0.000 A 
ATOM     24  C   UNL     1      -2.593   4.627  -2.849  0.00  0.00    +0.000 A 
ATOM     25  S   UNL     1      -1.365   4.340  -0.775  0.00  0.00    +0.000 S 
ENDBRANCH  16  17
ENDBRANCH   4  16
TORSDOF 5
