REMARK  Name = 
REMARK  9 active torsions:
REMARK  status: ('A' for Active; 'I' for Inactive)
REMARK    1  A    between atoms: C_1  and  C_2
REMARK    2  A    between atoms: C_2  and  C_3
REMARK    3  A    between atoms: C_3  and  C_4
REMARK    4  A    between atoms: C_4  and  N_5
REMARK    5  A    between atoms: C_6  and  C_8
REMARK    6  A    between atoms: C_11  and  C_12
REMARK    7  A    between atoms: C_12  and  N_13
REMARK    8  A    between atoms: C_23  and  O_24
REMARK    9  A    between atoms: O_24  and  C_25
REMARK                            x       y       z     vdW  Elec       q    Type
REMARK                         _______ _______ _______ _____ _____    ______ ____
ROOT
ATOM      1  N   UNL     1      -5.863  -5.451  -6.737  0.00  0.00    +0.000 N 
ATOM      2  C   UNL     1      -5.526  -4.244  -7.346  0.00  0.00    +0.000 A 
ATOM      3  S   UNL     1      -4.595  -3.174  -6.564  0.00  0.00    +0.000 S 
ATOM      4  N   UNL     1      -5.991  -3.957  -8.628  0.00  0.00    +0.000 N 
ATOM      5  C   UNL     1      -6.791  -4.877  -9.300  0.00  0.00    +0.000 A 
ATOM      6  C   UNL     1      -7.139  -6.125  -8.671  0.00  0.00    +0.000 A 
ATOM      7  N   UNL     1      -7.940  -7.045  -9.343  0.00  0.00    +0.000 N 
ATOM      8  C   UNL     1      -8.404  -6.758 -10.625  0.00  0.00    +0.000 A 
ATOM      9  C   UNL     1      -8.056  -5.511 -11.254  0.00  0.00    +0.000 A 
ATOM     10  C   UNL     1      -7.228  -4.559 -10.559  0.00  0.00    +0.000 A 
ATOM     11  C   UNL     1      -6.880  -3.312 -11.188  0.00  0.00    +0.000 A 
ATOM     12  C   UNL     1      -7.360  -3.015 -12.514  0.00  0.00    +0.000 A 
ATOM     13  C   UNL     1      -7.271  -4.581 -10.625  0.00  0.00    +0.000 A 
ATOM     14  C   UNL     1      -6.663  -6.371  -7.410  0.00  0.00    +0.000 A 
ATOM     15  O   UNL     1      -6.970  -7.472  -6.854  0.00  0.00    +0.000 OA
ATOM     16  H   UNL     1      -5.744  -3.074  -9.074  0.00  0.00    +0.000 HD
ATOM     17  H   UNL     1      -8.186  -7.929  -8.897  0.00  0.00    +0.000 HD
ENDROOT
BRANCH  11  18
ATOM     18  O   UNL     1      -6.064  -2.374 -10.503  0.00  0.00    +0.000 OA
ATOM     19  C   UNL     1      -5.591  -2.666  -9.196  0.00  0.00    +0.000 C 
ENDBRANCH  11  18
BRANCH   1  20
ATOM     20  C   UNL     1      -5.373  -5.753  -5.385  0.00  0.00    +0.000 C 
BRANCH  20  24
ATOM     21  C   UNL     1      -0.972  -3.917  -3.696  0.00  0.00    +0.000 A 
ATOM     22  C   UNL     1      -1.692  -4.835  -4.540  0.00  0.00    +0.000 A 
ATOM     23  C   UNL     1      -3.133  -4.835  -4.540  0.00  0.00    +0.000 A 
ATOM     24  C   UNL     1      -3.853  -5.753  -5.385  0.00  0.00    +0.000 A 
ATOM     25  C   UNL     1      -3.133  -6.671  -6.229  0.00  0.00    +0.000 A 
ATOM     26  C   UNL     1       0.468  -3.917  -3.696  0.00  0.00    +0.000 A 
BRANCH  21  28
ATOM     27  N   UNL     1      -0.997  -2.012  -1.943  0.00  0.00    +0.000 N 
ATOM     28  C   UNL     1      -1.732  -2.949  -2.805  0.00  0.00    +0.000 C 
ATOM     29  O   UNL     1      -3.003  -2.949  -2.805  0.00  0.00    +0.000 OA
ATOM     30  H   UNL     1      -1.507  -1.361  -1.345  0.00  0.00    +0.000 HD
BRANCH  27  31
ATOM     31  C   UNL     1       0.473  -2.012  -1.943  0.00  0.00    +0.000 C 
BRANCH  31  32
ATOM     32  C   UNL     1       0.979  -0.644  -2.371  0.00  0.00    +0.000 C 
BRANCH  32  34
ATOM     33  C   UNL     1       0.979   0.098  -0.003  0.00  0.00    +0.000 C 
ATOM     34  C   UNL     1       0.473   0.411  -1.401  0.00  0.00    +0.000 C 
ENDBRANCH  32  34
ENDBRANCH  31  32
ENDBRANCH  27  31
ENDBRANCH  21  28
ENDBRANCH  20  24
ENDBRANCH   1  20
TORSDOF 7
