REMARK  Name = 
REMARK  6 active torsions:
REMARK  status: ('A' for Active; 'I' for Inactive)
REMARK    1  A    between atoms: C_1  and  C_2
REMARK    2  A    between atoms: N_5  and  C_6
REMARK    3  A    between atoms: C_6  and  C_7
REMARK    4  A    between atoms: C_7  and  N_8
REMARK    5  A    between atoms: N_8  and  C_19
REMARK    6  A    between atoms: N_11  and  C_12
REMARK                            x       y       z     vdW  Elec       q    Type
REMARK                         _______ _______ _______ _____ _____    ______ ____
ROOT
ATOM      1  N   UNL     1       0.400  -1.497  -3.365  0.00  0.00    +0.000 N 
ATOM      2  C   UNL     1       1.135  -1.640  -4.630  0.00  0.00    +0.000 C 
ATOM      3  O   UNL     1       2.406  -1.640  -4.630  0.00  0.00    +0.000 OA
ATOM      4  N   UNL     1       0.400  -1.782  -5.895  0.00  0.00    +0.000 N 
ATOM      5  H   UNL     1       0.910  -1.881  -6.773  0.00  0.00    +0.000 HD
ENDROOT
BRANCH   1   6
ATOM      6  C   UNL     1       1.135  -1.354  -2.100  0.00  0.00    +0.000 A 
ATOM      7  C   UNL     1       2.576  -1.354  -2.100  0.00  0.00    +0.000 A 
ATOM      8  C   UNL     1       3.296  -1.494  -3.339  0.00  0.00    +0.000 A 
ATOM      9  C   UNL     1       4.736  -1.494  -3.339  0.00  0.00    +0.000 A 
ATOM     10  N   UNL     1       5.432  -1.359  -2.141  0.00  0.00    +0.000 NA
ATOM     11  C   UNL     1       6.825  -1.359  -2.141  0.00  0.00    +0.000 A 
ATOM     12  N   UNL     1       7.560  -1.501  -3.406  0.00  0.00    +0.000 N 
ATOM     13  S   UNL     1       7.683  -1.192  -0.665  0.00  0.00    +0.000 S 
ATOM     14  C   UNL     1       5.456  -1.634  -4.579  0.00  0.00    +0.000 A 
ATOM     15  C   UNL     1       0.415  -1.214  -0.860  0.00  0.00    +0.000 A 
ATOM     16  H   UNL     1       8.580  -1.501  -3.406  0.00  0.00    +0.000 HD
ATOM     17  H   UNL     1       7.050  -1.600  -4.283  0.00  0.00    +0.000 HD
ENDBRANCH   1   6
BRANCH   4  18
ATOM     18  C   UNL     1      -1.070  -1.782  -5.895  0.00  0.00    +0.000 A 
ATOM     19  C   UNL     1      -1.790  -1.642  -4.655  0.00  0.00    +0.000 A 
ATOM     20  C   UNL     1      -1.070  -1.503  -3.416  0.00  0.00    +0.000 A 
ATOM     21  C   UNL     1      -1.790  -1.363  -2.177  0.00  0.00    +0.000 A 
ATOM     22 CL   UNL     1      -0.900  -1.190  -0.645  0.00  0.00    +0.000 Cl
ATOM     23  C   UNL     1      -3.230  -1.363  -2.177  0.00  0.00    +0.000 A 
ATOM     24  C   UNL     1      -1.790  -1.922  -7.134  0.00  0.00    +0.000 A 
ENDBRANCH   4  18
BRANCH   1  25
ATOM     25  C   UNL     1      -1.070  -1.497  -3.365  0.00  0.00    +0.000 C 
BRANCH  25  26
ATOM     26  C   UNL     1      -1.576  -2.650  -2.514  0.00  0.00    +0.000 C 
BRANCH  26  31
ATOM     27  C   UNL     1       0.957   0.090  -0.010  0.00  0.00    +0.000 C 
ATOM     28  C   UNL     1       0.450  -1.063   0.842  0.00  0.00    +0.000 C 
ATOM     29  C   UNL     1      -1.070  -1.063   0.842  0.00  0.00    +0.000 C 
ATOM     30  C   UNL     1      -1.576  -1.224  -0.582  0.00  0.00    +0.000 C 
ATOM     31  N   UNL     1      -1.086  -2.494  -1.136  0.00  0.00    +0.000 NA
ATOM     32  C   UNL     1       0.384  -2.494  -1.136  0.00  0.00    +0.000 C 
ATOM     33  C   UNL     1       0.957  -0.902   2.266  0.00  0.00    +0.000 C 
ENDBRANCH  26  31
ENDBRANCH  25  26
ENDBRANCH   1  25
TORSDOF 5
