REMARK  Name = 
REMARK  6 active torsions:
REMARK  status: ('A' for Active; 'I' for Inactive)
REMARK    1  A    between atoms: C_1  and  C_2
REMARK    2  A    between atoms: C_7  and  C_8
REMARK    3  A    between atoms: N_10  and  N_11
REMARK    4  A    between atoms: N_11  and  C_12
REMARK    5  A    between atoms: C_12  and  N_14
REMARK    6  A    between atoms: C_15  and  C_17
REMARK                            x       y       z     vdW  Elec       q    Type
REMARK                         _______ _______ _______ _____ _____    ______ ____
ROOT
ATOM      1  C   UNL     1      -2.907   5.392  -0.682  0.00  0.00    +0.000 C 
ATOM      2  S   UNL     1      -3.447   6.434   0.435  0.00  0.00    +0.000 S 
ENDROOT
BRANCH   1   3
ATOM      3  N   UNL     1      -3.262   5.581  -2.095  0.00  0.00    +0.000 N 
ATOM      4  C   UNL     1      -2.772   4.636  -3.109  0.00  0.00    +0.000 C 
ATOM      5  O   UNL     1      -3.079   4.800  -4.331  0.00  0.00    +0.000 OA
ATOM      6  H   UNL     1      -3.849   6.369  -2.373  0.00  0.00    +0.000 HD
BRANCH   4   7
ATOM      7  C   UNL     1      -1.898   3.464  -2.695  0.00  0.00    +0.000 A 
ATOM      8  C   UNL     1      -1.418   2.537  -3.688  0.00  0.00    +0.000 A 
ATOM      9  C   UNL     1      -1.766   2.723  -5.073  0.00  0.00    +0.000 A 
ATOM     10  C   UNL     1      -1.286   1.797  -6.067  0.00  0.00    +0.000 A 
ATOM     11 CL   UNL     1      -1.716   2.026  -7.779  0.00  0.00    +0.000 Cl
ATOM     12  C   UNL     1      -0.458   0.685  -5.674  0.00  0.00    +0.000 A 
ATOM     13  C   UNL     1      -1.550   3.278  -1.310  0.00  0.00    +0.000 A 
ATOM     14 CL   UNL     1      -2.144   4.423  -0.083  0.00  0.00    +0.000 Cl
ENDBRANCH   4   7
ENDBRANCH   1   3
BRANCH   1  15
ATOM     15  N   UNL     1      -2.062   4.258  -0.281  0.00  0.00    +0.000 N 
ATOM     16  H   UNL     1      -1.816   4.127   0.700  0.00  0.00    +0.000 HD
BRANCH  15  19
ATOM     17  C   UNL     1      -0.743   2.211  -0.860  0.00  0.00    +0.000 C 
ATOM     18  O   UNL     1      -0.320   1.394  -1.737  0.00  0.00    +0.000 OA
ATOM     19  N   UNL     1      -1.589   3.345  -1.260  0.00  0.00    +0.000 N 
ATOM     20  H   UNL     1      -1.835   3.476  -2.242  0.00  0.00    +0.000 HD
BRANCH  17  27
ATOM     21  C   UNL     1       0.958  -0.073  -0.054  0.00  0.00    +0.000 C 
ATOM     22  C   UNL     1       0.452   0.904   0.994  0.00  0.00    +0.000 A 
ATOM     23  C   UNL     1       0.800   0.719   2.379  0.00  0.00    +0.000 A 
ATOM     24  C   UNL     1       1.628  -0.392   2.771  0.00  0.00    +0.000 A 
ATOM     25  C   UNL     1       1.976  -0.577   4.156  0.00  0.00    +0.000 A 
ATOM     26  C   UNL     1       2.804  -1.689   4.549  0.00  0.00    +0.000 A 
ATOM     27  C   UNL     1      -0.376   2.016   0.602  0.00  0.00    +0.000 A 
ENDBRANCH  17  27
ENDBRANCH  15  19
ENDBRANCH   1  15
TORSDOF 5
