REMARK  Name = 
REMARK  7 active torsions:
REMARK  status: ('A' for Active; 'I' for Inactive)
REMARK    1  A    between atoms: C_1  and  O_2
REMARK    2  A    between atoms: O_2  and  C_3
REMARK    3  A    between atoms: C_7  and  C_8
REMARK    4  A    between atoms: C_11  and  C_12
REMARK    5  A    between atoms: C_12  and  O_13
REMARK    6  A    between atoms: O_13  and  C_14
REMARK    7  A    between atoms: N_16  and  C_17
REMARK                            x       y       z     vdW  Elec       q    Type
REMARK                         _______ _______ _______ _____ _____    ______ ____
ROOT
ATOM      1  C   UNL     1      -2.025  -2.296  -4.864  0.00  0.00    +0.000 A 
ATOM      2  C   UNL     1      -2.853  -3.381  -5.323  0.00  0.00    +0.000 A 
ATOM      3  C   UNL     1      -3.333  -3.396  -6.681  0.00  0.00    +0.000 A 
ATOM      4  C   UNL     1      -4.161  -4.481  -7.139  0.00  0.00    +0.000 A 
ATOM      5  C   UNL     1      -4.509  -5.552  -6.241  0.00  0.00    +0.000 A 
ATOM      6  F   UNL     1      -5.274  -6.554  -6.665  0.00  0.00    +0.000 F 
ATOM      7  C   UNL     1      -1.545  -2.280  -3.506  0.00  0.00    +0.000 A 
ENDROOT
BRANCH   1  12
ATOM      8  C   UNL     1       0.958   1.035  -2.179  0.00  0.00    +0.000 A 
ATOM      9  C   UNL     1       0.478   1.020  -3.537  0.00  0.00    +0.000 A 
ATOM     10  C   UNL     1      -0.350  -0.066  -3.996  0.00  0.00    +0.000 A 
ATOM     11  C   UNL     1      -0.830  -0.081  -5.353  0.00  0.00    +0.000 A 
ATOM     12  C   UNL     1      -1.658  -1.166  -5.812  0.00  0.00    +0.000 A 
ATOM     13  C   UNL     1       1.786   2.120  -1.720  0.00  0.00    +0.000 A 
BRANCH   8  15
ATOM     14  C   UNL     1       1.089  -0.005   0.046  0.00  0.00    +0.000 C 
ATOM     15  O   UNL     1       0.615  -0.020  -1.293  0.00  0.00    +0.000 OA
ENDBRANCH   8  15
ENDBRANCH   1  12
BRANCH   4  16
ATOM     16  C   UNL     1      -4.668  -4.497  -8.572  0.00  0.00    +0.000 C 
BRANCH  16  17
ATOM     17  O   UNL     1      -4.194  -5.664  -9.229  0.00  0.00    +0.000 OA
BRANCH  17  18
ATOM     18  C   UNL     1      -2.774  -5.664  -9.229  0.00  0.00    +0.000 C 
ATOM     19  C   UNL     1      -2.268  -5.648  -7.796  0.00  0.00    +0.000 C 
ATOM     20  N   UNL     1      -2.758  -6.841  -7.090  0.00  0.00    +0.000 N 
ATOM     21  C   UNL     1      -2.268  -4.431  -9.959  0.00  0.00    +0.000 C 
BRANCH  20  22
ATOM     22  C   UNL     1      -4.203  -7.072  -6.953  0.00  0.00    +0.000 C 
ATOM     23  N   UNL     1      -5.443  -7.270  -6.835  0.00  0.00    +0.000 NA
ENDBRANCH  20  22
ENDBRANCH  17  18
ENDBRANCH  16  17
ENDBRANCH   4  16
TORSDOF 6
