REMARK  Name = 
REMARK  6 active torsions:
REMARK  status: ('A' for Active; 'I' for Inactive)
REMARK    1  A    between atoms: C_1  and  C_2
REMARK    2  A    between atoms: C_5  and  C_6
REMARK    3  A    between atoms: C_9  and  C_10
REMARK    4  A    between atoms: C_10  and  O_11
REMARK    5  A    between atoms: O_11  and  C_12
REMARK    6  A    between atoms: N_14  and  C_15
REMARK                            x       y       z     vdW  Elec       q    Type
REMARK                         _______ _______ _______ _____ _____    ______ ____
ROOT
ATOM      1  C   UNL     1       2.956  -3.755   3.062  0.00  0.00    +0.000 A 
ATOM      2  C   UNL     1       3.436  -4.036   1.733  0.00  0.00    +0.000 A 
ATOM      3  C   UNL     1       3.088  -3.162   0.642  0.00  0.00    +0.000 A 
ATOM      4  C   UNL     1       3.568  -3.443  -0.686  0.00  0.00    +0.000 A 
ATOM      5  C   UNL     1       4.396  -4.597  -0.924  0.00  0.00    +0.000 A 
ATOM      6  C   UNL     1       3.304  -4.628   4.153  0.00  0.00    +0.000 A 
ENDROOT
BRANCH   1  11
ATOM      7  C   UNL     1       1.065   0.068  -0.034  0.00  0.00    +0.000 C 
ATOM      8  C   UNL     1       0.558   0.364   1.368  0.00  0.00    +0.000 A 
ATOM      9  C   UNL     1       0.906  -0.509   2.459  0.00  0.00    +0.000 A 
ATOM     10  C   UNL     1       1.734  -1.663   2.221  0.00  0.00    +0.000 A 
ATOM     11  C   UNL     1       2.082  -2.537   3.312  0.00  0.00    +0.000 A 
ATOM     12  C   UNL     1       1.602  -2.256   4.641  0.00  0.00    +0.000 A 
ATOM     13  C   UNL     1      -0.270   1.518   1.605  0.00  0.00    +0.000 A 
ENDBRANCH   1  11
BRANCH   4  14
ATOM     14  C   UNL     1       3.201  -2.521  -1.838  0.00  0.00    +0.000 C 
BRANCH  14  15
ATOM     15  O   UNL     1       4.384  -1.983  -2.409  0.00  0.00    +0.000 OA
BRANCH  15  16
ATOM     16  C   UNL     1       5.094  -1.249  -1.423  0.00  0.00    +0.000 C 
ATOM     17  C   UNL     1       5.462  -2.170  -0.271  0.00  0.00    +0.000 C 
ATOM     18  N   UNL     1       6.307  -3.265  -0.770  0.00  0.00    +0.000 N 
ATOM     19  C   UNL     1       4.221  -0.117  -0.907  0.00  0.00    +0.000 C 
BRANCH  18  20
ATOM     20  C   UNL     1       5.795  -4.175  -1.805  0.00  0.00    +0.000 C 
ATOM     21  N   UNL     1       5.357  -4.956  -2.692  0.00  0.00    +0.000 NA
ENDBRANCH  18  20
ENDBRANCH  15  16
ENDBRANCH  14  15
ENDBRANCH   4  14
TORSDOF 5
