REMARK  Name = 
REMARK  7 active torsions:
REMARK  status: ('A' for Active; 'I' for Inactive)
REMARK    1  A    between atoms: C_2  and  C_3
REMARK    2  A    between atoms: C_3  and  C_13
REMARK    3  A    between atoms: N_18  and  C_19
REMARK    4  A    between atoms: C_19  and  C_20
REMARK    5  A    between atoms: C_20  and  C_21
REMARK    6  A    between atoms: C_24  and  S_25
REMARK    7  A    between atoms: S_25  and  N_26
REMARK                            x       y       z     vdW  Elec       q    Type
REMARK                         _______ _______ _______ _____ _____    ______ ____
ROOT
ATOM      1  C   UNL     1       4.532  -0.430   1.274  0.00  0.00    +0.000 A 
ATOM      2  C   UNL     1       5.972  -0.430   1.274  0.00  0.00    +0.000 A 
ATOM      3  C   UNL     1       6.692  -0.117   0.067  0.00  0.00    +0.000 A 
ATOM      4  N   UNL     1       8.085  -0.117   0.067  0.00  0.00    +0.000 NA
ATOM      5  C   UNL     1       8.781  -0.419   1.234  0.00  0.00    +0.000 A 
ATOM      6  N   UNL     1      10.251  -0.419   1.234  0.00  0.00    +0.000 N 
ATOM      7  N   UNL     1       3.835  -0.732   2.442  0.00  0.00    +0.000 NA
ATOM      8  H   UNL     1      10.761  -0.641   2.090  0.00  0.00    +0.000 HD
ENDROOT
BRANCH   1   9
ATOM      9  C   UNL     1       3.772  -0.100  -0.000  0.00  0.00    +0.000 C 
ATOM     10  C   UNL     1       4.452   0.196  -1.141  0.00  0.00    +0.000 C 
ATOM     11  N   UNL     1       5.922   0.196  -1.141  0.00  0.00    +0.000 N 
ATOM     12  C   UNL     1       6.657  -0.123   0.092  0.00  0.00    +0.000 A 
ATOM     13  C   UNL     1       5.937  -0.436   1.299  0.00  0.00    +0.000 A 
ATOM     14  C   UNL     1       4.497  -0.436   1.299  0.00  0.00    +0.000 A 
ATOM     15  C   UNL     1       3.776  -0.749   2.507  0.00  0.00    +0.000 A 
ATOM     16  C   UNL     1       2.336  -0.749   2.507  0.00  0.00    +0.000 A 
ATOM     17  C   UNL     1       8.097  -0.123   0.092  0.00  0.00    +0.000 A 
ATOM     18  S   UNL     1       3.547   0.589  -2.658  0.00  0.00    +0.000 S 
ATOM     19  H   UNL     1       6.432   0.417  -1.996  0.00  0.00    +0.000 HD
BRANCH   9  21
ATOM     20  N   UNL     1       0.991  -0.100  -0.000  0.00  0.00    +0.000 NA
ATOM     21  C   UNL     1       2.252  -0.100  -0.000  0.00  0.00    +0.000 C 
ENDBRANCH   9  21
ENDBRANCH   1   9
BRANCH   6  22
ATOM     22  C   UNL     1      10.986  -0.100   0.002  0.00  0.00    +0.000 C 
BRANCH  22  23
ATOM     23  C   UNL     1      11.860   1.122   0.235  0.00  0.00    +0.000 C 
BRANCH  23  24
ATOM     24  C   UNL     1      12.848   0.832   1.354  0.00  0.00    +0.000 A 
ATOM     25  C   UNL     1      12.368   0.492   2.668  0.00  0.00    +0.000 A 
ATOM     26  C   UNL     1      10.952   0.426   2.923  0.00  0.00    +0.000 A 
ATOM     27  C   UNL     1      10.472   0.085   4.237  0.00  0.00    +0.000 A 
ATOM     28  C   UNL     1      11.408  -0.189   5.297  0.00  0.00    +0.000 A 
ATOM     29  C   UNL     1      14.264   0.898   1.099  0.00  0.00    +0.000 A 
BRANCH  27  30
ATOM     30  S   UNL     1       8.692   0.002   4.557  0.00  0.00    +0.000 S 
ATOM     31  O   UNL     1       8.323   1.011   5.648  0.00  0.00    +0.000 OA
ATOM     32  O   UNL     1       7.927   0.335   3.274  0.00  0.00    +0.000 OA
BRANCH  30  33
ATOM     33  N   UNL     1       8.267  -1.620   5.091  0.00  0.00    +0.000 NA
ATOM     34  H   UNL     1       7.264  -1.667   5.271  0.00  0.00    +0.000 HD
ATOM     35  H   UNL     1       8.513  -2.292   4.364  0.00  0.00    +0.000 HD
ENDBRANCH  30  33
ENDBRANCH  27  30
ENDBRANCH  23  24
ENDBRANCH  22  23
ENDBRANCH   6  22
TORSDOF 7
