REMARK  Name = 
REMARK  5 active torsions:
REMARK  status: ('A' for Active; 'I' for Inactive)
REMARK    1  A    between atoms: N_2  and  C_4
REMARK    2  A    between atoms: C_8  and  N_9
REMARK    3  A    between atoms: N_9  and  C_10
REMARK    4  A    between atoms: C_10  and  N_12
REMARK    5  A    between atoms: C_15  and  C_16
REMARK                            x       y       z     vdW  Elec       q    Type
REMARK                         _______ _______ _______ _____ _____    ______ ____
ROOT
ATOM      1  N   UNL     1       4.275   0.914   0.757  0.00  0.00    +0.000 N 
ATOM      2  C   UNL     1       5.010  -0.020  -0.107  0.00  0.00    +0.000 A 
ATOM      3  N   UNL     1       6.402  -0.020  -0.107  0.00  0.00    +0.000 NA
ATOM      4  C   UNL     1       7.099  -0.906  -0.926  0.00  0.00    +0.000 A 
ATOM      5  C   UNL     1       8.539  -0.906  -0.926  0.00  0.00    +0.000 A 
ATOM      6  S   UNL     1       4.152  -1.111  -1.115  0.00  0.00    +0.000 S 
ATOM      7  H   UNL     1       3.255   0.914   0.757  0.00  0.00    +0.000 HD
ENDROOT
BRANCH   4   8
ATOM      8  C   UNL     1       6.339  -1.873  -1.819  0.00  0.00    +0.000 A 
ATOM      9  C   UNL     1       4.899  -1.873  -1.819  0.00  0.00    +0.000 A 
ATOM     10  C   UNL     1       4.178  -0.957  -0.973  0.00  0.00    +0.000 A 
ATOM     11  C   UNL     1       2.738  -0.957  -0.973  0.00  0.00    +0.000 A 
ATOM     12  C   UNL     1       2.018  -0.041  -0.126  0.00  0.00    +0.000 A 
ATOM     13  C   UNL     1       7.059  -2.789  -2.666  0.00  0.00    +0.000 A 
ATOM     14 CL   UNL     1       8.839  -2.789  -2.666  0.00  0.00    +0.000 Cl
ENDBRANCH   4   8
BRANCH   1  15
ATOM     15  C   UNL     1       5.010   1.849   1.621  0.00  0.00    +0.000 C 
ATOM     16  S   UNL     1       4.200   2.879   2.574  0.00  0.00    +0.000 S 
BRANCH  15  17
ATOM     17  N   UNL     1       6.480   1.849   1.621  0.00  0.00    +0.000 N 
ATOM     18  H   UNL     1       6.990   2.498   2.221  0.00  0.00    +0.000 HD
BRANCH  17  23
ATOM     19  C   UNL     1       2.894  -0.917  -0.936  0.00  0.00    +0.000 A 
ATOM     20  C   UNL     1       4.334  -0.917  -0.936  0.00  0.00    +0.000 A 
ATOM     21  C   UNL     1       5.054  -0.001  -0.089  0.00  0.00    +0.000 A 
ATOM     22  C   UNL     1       6.494  -0.001  -0.089  0.00  0.00    +0.000 A 
ATOM     23  C   UNL     1       7.215   0.914   0.757  0.00  0.00    +0.000 A 
ATOM     24  C   UNL     1       2.174  -1.833  -1.783  0.00  0.00    +0.000 A 
BRANCH  19  26
ATOM     25  O   UNL     1       0.933   0.018  -0.072  0.00  0.00    +0.000 OA
ATOM     26  N   UNL     1       2.159   0.018  -0.072  0.00  0.00    +0.000 N 
ATOM     27  O   UNL     1       2.844   0.889   0.733  0.00  0.00    +0.000 OA
ENDBRANCH  19  26
ENDBRANCH  17  23
ENDBRANCH  15  17
ENDBRANCH   1  15
TORSDOF 5
