REMARK  Name = 
REMARK  13 active torsions:
REMARK  status: ('A' for Active; 'I' for Inactive)
REMARK    1  A    between atoms: C_1  and  O_2
REMARK    2  A    between atoms: O_2  and  C_3
REMARK    3  A    between atoms: C_6  and  C_7
REMARK    4  A    between atoms: C_15  and  N_16
REMARK    5  A    between atoms: N_16  and  C_17
REMARK    6  A    between atoms: C_17  and  C_18
REMARK    7  A    between atoms: C_17  and  C_19
REMARK    8  A    between atoms: C_17  and  C_20
REMARK    9  A    between atoms: C_20  and  C_21
REMARK   10  A    between atoms: C_21  and  C_22
REMARK   11  A    between atoms: C_21  and  C_23
REMARK   12  A    between atoms: C_21  and  C_24
REMARK   13  A    between atoms: C_26  and  O_27
REMARK                            x       y       z     vdW  Elec       q    Type
REMARK                         _______ _______ _______ _____ _____    ______ ____
ROOT
ATOM      1  C   UNL     1      -1.876   5.358   2.754  0.00  0.00    +0.000 A 
ATOM      2  N   UNL     1      -2.213   5.320   1.403  0.00  0.00    +0.000 NA
ATOM      3  C   UNL     1      -3.013   6.320   0.857  0.00  0.00    +0.000 A 
ATOM      4  C   UNL     1      -3.361   6.281  -0.540  0.00  0.00    +0.000 A 
ATOM      5  N   UNL     1      -2.897   5.244  -1.345  0.00  0.00    +0.000 NA
ATOM      6  C   UNL     1      -2.096   4.243  -0.799  0.00  0.00    +0.000 A 
ATOM      7  C   UNL     1      -1.748   4.282   0.598  0.00  0.00    +0.000 A 
ATOM      8  N   UNL     1      -3.478   7.358   1.661  0.00  0.00    +0.000 N 
ATOM      9  C   UNL     1      -2.356   6.431   3.586  0.00  0.00    +0.000 A 
ENDROOT
BRANCH   1  13
ATOM     10  C   UNL     1       0.786   1.086   2.251  0.00  0.00    +0.000 A 
ATOM     11  C   UNL     1       0.306   2.159   3.083  0.00  0.00    +0.000 A 
ATOM     12  C   UNL     1      -0.522   3.193   2.518  0.00  0.00    +0.000 A 
ATOM     13  C   UNL     1      -1.002   4.266   3.350  0.00  0.00    +0.000 A 
ATOM     14  C   UNL     1      -0.654   4.305   4.747  0.00  0.00    +0.000 A 
ATOM     15  C   UNL     1       1.614   0.052   2.816  0.00  0.00    +0.000 A 
BRANCH  10  17
ATOM     16  C   UNL     1       0.916  -0.010   0.053  0.00  0.00    +0.000 C 
ATOM     17  O   UNL     1       0.443   1.048   0.874  0.00  0.00    +0.000 OA
ENDBRANCH  10  17
BRANCH  15  18
ATOM     18  O   UNL     1       2.087  -1.006   1.996  0.00  0.00    +0.000 OA
ATOM     19  H   UNL     1       2.662  -1.724   2.388  0.00  0.00    +0.000 HD
ENDBRANCH  15  18
ENDBRANCH   1  13
BRANCH   9  20
ATOM     20  N   UNL     1      -2.001   6.471   5.012  0.00  0.00    +0.000 N 
ATOM     21  H   UNL     1      -2.341   7.230   5.601  0.00  0.00    +0.000 HD
BRANCH  20  22
ATOM     22  C   UNL     1      -1.156   5.415   5.589  0.00  0.00    +0.000 C 
ATOM     23  C   UNL     1       0.111   6.034   6.157  0.00  0.00    +0.000 C 
ATOM     24  C   UNL     1      -1.916   4.707   6.698  0.00  0.00    +0.000 C 
BRANCH  22  25
ATOM     25  C   UNL     1      -0.789   4.412   4.507  0.00  0.00    +0.000 C 
BRANCH  25  26
ATOM     26  C   UNL     1      -2.056   3.793   3.939  0.00  0.00    +0.000 C 
ATOM     27  C   UNL     1      -2.929   4.885   3.342  0.00  0.00    +0.000 C 
ATOM     28  C   UNL     1      -1.688   2.791   2.857  0.00  0.00    +0.000 C 
ATOM     29  C   UNL     1      -2.816   3.086   5.048  0.00  0.00    +0.000 C 
ENDBRANCH  25  26
ENDBRANCH  22  25
ENDBRANCH  20  22
ENDBRANCH   9  20
TORSDOF 7
