REMARK  Name = 
REMARK  4 active torsions:
REMARK  status: ('A' for Active; 'I' for Inactive)
REMARK    1  A    between atoms: C_1  and  O_2
REMARK    2  A    between atoms: O_2  and  C_3
REMARK    3  A    between atoms: C_6  and  C_7
REMARK    4  A    between atoms: C_12  and  C_13
REMARK                            x       y       z     vdW  Elec       q    Type
REMARK                         _______ _______ _______ _____ _____    ______ ____
ROOT
ATOM      1  C   UNL     1      -1.867  -0.210  -6.065  0.00  0.00    +0.000 C 
ATOM      2  N   UNL     1      -2.185  -1.309  -5.416  0.00  0.00    +0.000 NA
ATOM      3  C   UNL     1      -3.030  -2.325  -6.061  0.00  0.00    +0.000 C 
ATOM      4  O   UNL     1      -3.454  -2.141  -7.245  0.00  0.00    +0.000 OA
ATOM      5  C   UNL     1      -3.398  -3.595  -5.311  0.00  0.00    +0.000 C 
ATOM      6  C   UNL     1      -4.180  -4.535  -5.907  0.00  0.00    +0.000 C 
ATOM      7  S   UNL     1      -2.471   0.053  -7.751  0.00  0.00    +0.000 S 
ENDROOT
BRANCH   6   8
ATOM      8  C   UNL     1      -4.547  -5.805  -5.158  0.00  0.00    +0.000 A 
ATOM      9  C   UNL     1      -4.067  -6.014  -3.816  0.00  0.00    +0.000 A 
ATOM     10  C   UNL     1      -3.239  -5.019  -3.185  0.00  0.00    +0.000 A 
ATOM     11  C   UNL     1      -2.759  -5.227  -1.843  0.00  0.00    +0.000 A 
ATOM     12  C   UNL     1      -3.107  -6.431  -1.133  0.00  0.00    +0.000 A 
ATOM     13  C   UNL     1      -3.935  -7.426  -1.764  0.00  0.00    +0.000 A 
ATOM     14  C   UNL     1      -4.283  -8.629  -1.054  0.00  0.00    +0.000 A 
ATOM     15  C   UNL     1      -5.111  -9.624  -1.685  0.00  0.00    +0.000 A 
ATOM     16  C   UNL     1      -1.931  -4.232  -1.211  0.00  0.00    +0.000 A 
ATOM     17  C   UNL     1      -5.375  -6.800  -5.789  0.00  0.00    +0.000 A 
ENDBRANCH   6   8
BRANCH   1  21
ATOM     18  C   UNL     1       0.795   1.418  -2.084  0.00  0.00    +0.000 A 
ATOM     19  C   UNL     1       0.314   1.627  -3.426  0.00  0.00    +0.000 A 
ATOM     20  C   UNL     1      -0.514   0.632  -4.057  0.00  0.00    +0.000 A 
ATOM     21  C   UNL     1      -0.994   0.840  -5.399  0.00  0.00    +0.000 A 
ATOM     22  C   UNL     1      -0.646   2.044  -6.109  0.00  0.00    +0.000 A 
ATOM     23  C   UNL     1       1.623   2.413  -1.453  0.00  0.00    +0.000 A 
BRANCH  18  25
ATOM     24  C   UNL     1       0.925   0.026  -0.061  0.00  0.00    +0.000 C 
ATOM     25  O   UNL     1       0.451   0.232  -1.384  0.00  0.00    +0.000 OA
ENDBRANCH  18  25
ENDBRANCH   1  21
TORSDOF 3
