REMARK  Name = 
REMARK  6 active torsions:
REMARK  status: ('A' for Active; 'I' for Inactive)
REMARK    1  A    between atoms: C_1  and  C_2
REMARK    2  A    between atoms: C_5  and  S_6
REMARK    3  A    between atoms: S_6  and  N_9
REMARK    4  A    between atoms: C_12  and  C_13
REMARK    5  A    between atoms: N_15  and  C_16
REMARK    6  A    between atoms: C_28  and  C_29
REMARK                            x       y       z     vdW  Elec       q    Type
REMARK                         _______ _______ _______ _____ _____    ______ ____
ROOT
ATOM      1  N   UNL     1       3.426  -4.124  -1.593  0.00  0.00    +0.000 NA
ATOM      2  C   UNL     1       4.271  -4.879  -2.529  0.00  0.00    +0.000 C 
ATOM      3  C   UNL     1       5.537  -5.328  -1.819  0.00  0.00    +0.000 C 
ATOM      4  C   UNL     1       5.170  -6.214  -0.639  0.00  0.00    +0.000 C 
ATOM      5  C   UNL     1       6.437  -6.663   0.071  0.00  0.00    +0.000 C 
ATOM      6  C   UNL     1       4.161  -2.946  -1.110  0.00  0.00    +0.000 C 
ENDROOT
BRANCH   4   7
ATOM      7  C   UNL     1       4.410  -7.432  -1.138  0.00  0.00    +0.000 C 
ATOM      8  O   UNL     1       4.871  -8.598  -0.929  0.00  0.00    +0.000 OA
ATOM      9  N   UNL     1       3.142  -7.262  -1.863  0.00  0.00    +0.000 N 
ATOM     10  H   UNL     1       2.632  -8.079  -2.198  0.00  0.00    +0.000 HD
BRANCH   9  11
ATOM     11  C   UNL     1       2.610  -5.913  -2.105  0.00  0.00    +0.000 A 
ATOM     12  C   UNL     1       3.330  -4.759  -1.632  0.00  0.00    +0.000 A 
ATOM     13  N   UNL     1       4.531  -4.921  -0.945  0.00  0.00    +0.000 NA
ATOM     14  C   UNL     1       5.036  -6.198  -0.716  0.00  0.00    +0.000 A 
ATOM     15  C   UNL     1       6.278  -6.366  -0.007  0.00  0.00    +0.000 A 
ATOM     16  C   UNL     1       6.998  -5.211   0.466  0.00  0.00    +0.000 A 
ATOM     17  C   UNL     1       8.240  -5.379   1.176  0.00  0.00    +0.000 A 
ATOM     18  C   UNL     1       8.960  -4.224   1.649  0.00  0.00    +0.000 A 
ATOM     19  C   UNL     1       4.316  -7.353  -1.189  0.00  0.00    +0.000 A 
ATOM     20  C   UNL     1       1.368  -5.746  -2.814  0.00  0.00    +0.000 A 
ENDBRANCH   9  11
ENDBRANCH   4   7
BRANCH   1  21
ATOM     21  S   UNL     1       3.000  -5.150  -0.227  0.00  0.00    +0.000 S 
ATOM     22  O   UNL     1       4.276  -5.602   0.488  0.00  0.00    +0.000 OA
ATOM     23  O   UNL     1       2.235  -6.376  -0.730  0.00  0.00    +0.000 OA
BRANCH  21  28
ATOM     24  C   UNL     1       0.943  -0.082  -0.002  0.00  0.00    +0.000 C 
ATOM     25  C   UNL     1       0.436  -0.745   1.269  0.00  0.00    +0.000 A 
ATOM     26  C   UNL     1       0.784  -2.112   1.556  0.00  0.00    +0.000 A 
ATOM     27  C   UNL     1       1.612  -2.852   0.638  0.00  0.00    +0.000 A 
ATOM     28  C   UNL     1       1.960  -4.220   0.925  0.00  0.00    +0.000 A 
ATOM     29  C   UNL     1       1.480  -4.848   2.129  0.00  0.00    +0.000 A 
ATOM     30  C   UNL     1       1.847  -6.291   2.432  0.00  0.00    +0.000 C 
ATOM     31  C   UNL     1      -0.392  -0.005   2.186  0.00  0.00    +0.000 A 
ENDBRANCH  21  28
ENDBRANCH   1  21
TORSDOF 4
