REMARK  Name = 
REMARK  6 active torsions:
REMARK  status: ('A' for Active; 'I' for Inactive)
REMARK    1  A    between atoms: C_1  and  S_2
REMARK    2  A    between atoms: S_2  and  N_5
REMARK    3  A    between atoms: N_8  and  C_9
REMARK    4  A    between atoms: C_12  and  N_13
REMARK    5  A    between atoms: C_14  and  C_16
REMARK    6  A    between atoms: C_19  and  N_20
REMARK                            x       y       z     vdW  Elec       q    Type
REMARK                         _______ _______ _______ _____ _____    ______ ____
ROOT
ATOM      1  C   UNL     1      -0.265  -4.826  -1.514  0.00  0.00    +0.000 A 
ATOM      2  C   UNL     1      -0.613  -5.714  -2.593  0.00  0.00    +0.000 A 
ATOM      3  C   UNL     1      -0.133  -5.451  -3.926  0.00  0.00    +0.000 A 
ATOM      4  C   UNL     1      -0.481  -6.339  -5.005  0.00  0.00    +0.000 A 
ATOM      5  C   UNL     1      -1.309  -7.490  -4.752  0.00  0.00    +0.000 A 
ATOM      6  C   UNL     1      -0.745  -5.089  -0.182  0.00  0.00    +0.000 A 
ENDROOT
BRANCH   1  10
ATOM      7  N   UNL     1       1.053  -0.983  -2.682  0.00  0.00    +0.000 NA
ATOM      8  C   UNL     1       0.563  -2.026  -3.595  0.00  0.00    +0.000 C 
ATOM      9  C   UNL     1       1.070  -3.383  -3.132  0.00  0.00    +0.000 C 
ATOM     10  N   UNL     1       0.580  -3.651  -1.772  0.00  0.00    +0.000 N 
ATOM     11  C   UNL     1       0.935  -2.745  -0.671  0.00  0.00    +0.000 C 
ATOM     12  C   UNL     1       2.523  -0.983  -2.682  0.00  0.00    +0.000 C 
BRANCH   7  14
ATOM     13  C   UNL     1       1.070  -0.020   0.069  0.00  0.00    +0.000 C 
ATOM     14  S   UNL     1       0.467  -1.304  -1.055  0.00  0.00    +0.000 S 
ATOM     15  O   UNL     1       0.977  -2.670  -0.589  0.00  0.00    +0.000 OA
ATOM     16  O   UNL     1      -1.064  -1.304  -1.055  0.00  0.00    +0.000 OA
ENDBRANCH   7  14
ENDBRANCH   1  10
BRANCH   4  17
ATOM     17  N   UNL     1       0.009  -6.070  -6.364  0.00  0.00    +0.000 N 
ATOM     18  C   UNL     1      -0.346  -6.977  -7.466  0.00  0.00    +0.000 C 
ATOM     19  O   UNL     1       0.078  -6.745  -8.642  0.00  0.00    +0.000 OA
ATOM     20  H   UNL     1       0.595  -5.255  -6.544  0.00  0.00    +0.000 HD
BRANCH  18  21
ATOM     21  C   UNL     1      -1.220  -8.191  -7.199  0.00  0.00    +0.000 A 
ATOM     22  C   UNL     1      -1.568  -9.079  -8.278  0.00  0.00    +0.000 A 
ATOM     23  C   UNL     1      -1.088  -8.816  -9.610  0.00  0.00    +0.000 A 
ATOM     24  C   UNL     1      -1.436  -9.704 -10.690  0.00  0.00    +0.000 A 
ATOM     25  O   UNL     1      -1.668  -8.437  -5.955  0.00  0.00    +0.000 OA
BRANCH  24  26
ATOM     26  N   UNL     1      -2.281 -10.879 -10.431  0.00  0.00    +0.000 N 
ATOM     27  O   UNL     1      -2.690 -11.103  -9.297  0.00  0.00    +0.000 OA
ATOM     28  O   UNL     1      -2.612 -11.724 -11.458  0.00  0.00    +0.000 OA
ENDBRANCH  24  26
ENDBRANCH  18  21
ENDBRANCH   4  17
TORSDOF 5
