REMARK  Name = 
REMARK  7 active torsions:
REMARK  status: ('A' for Active; 'I' for Inactive)
REMARK    1  A    between atoms: C_1  and  C_2
REMARK    2  A    between atoms: C_2  and  O_3
REMARK    3  A    between atoms: O_3  and  C_4
REMARK    4  A    between atoms: C_4  and  C_6
REMARK    5  A    between atoms: C_7  and  C_8
REMARK    6  A    between atoms: C_8  and  C_9
REMARK    7  A    between atoms: C_20  and  O_21
REMARK                            x       y       z     vdW  Elec       q    Type
REMARK                         _______ _______ _______ _____ _____    ______ ____
ROOT
ATOM      1  C   UNL     1       2.921   1.746   3.577  0.00  0.00    +0.000 A 
ATOM      2  C   UNL     1       4.337   1.933   3.761  0.00  0.00    +0.000 A 
ATOM      3  N   UNL     1       4.802   2.870   4.682  0.00  0.00    +0.000 N 
ATOM      4  C   UNL     1       3.896   3.625   5.424  0.00  0.00    +0.000 A 
ATOM      5  C   UNL     1       1.569   6.934   8.679  0.00  0.00    +0.000 A 
ATOM      6  C   UNL     1       1.089   5.966   7.727  0.00  0.00    +0.000 A 
ATOM      7  C   UNL     1       2.025   5.186   6.959  0.00  0.00    +0.000 A 
ATOM      8  C   UNL     1       1.545   4.217   6.007  0.00  0.00    +0.000 A 
ATOM      9  C   UNL     1       0.129   4.030   5.823  0.00  0.00    +0.000 A 
ATOM     10  C   UNL     1      -0.351   3.062   4.871  0.00  0.00    +0.000 A 
ATOM     11  C   UNL     1      -1.767   2.874   4.686  0.00  0.00    +0.000 A 
ATOM     12  C   UNL     1       2.000   2.469   4.288  0.00  0.00    +0.000 A 
ATOM     13  C   UNL     1       2.480   3.437   5.240  0.00  0.00    +0.000 A 
ATOM     14  H   UNL     1       5.804   3.003   4.813  0.00  0.00    +0.000 HD
ENDROOT
BRANCH   1  15
ATOM     15  C   UNL     1       2.415   0.724   2.572  0.00  0.00    +0.000 C 
ATOM     16  O   UNL     1       3.241   0.035   1.895  0.00  0.00    +0.000 OA
BRANCH  15  17
ATOM     17  O   UNL     1       1.019   0.539   2.390  0.00  0.00    +0.000 OA
BRANCH  17  19
ATOM     18  C   UNL     1       1.052  -0.057   0.064  0.00  0.00    +0.000 C 
ATOM     19  C   UNL     1       0.545  -0.416   1.451  0.00  0.00    +0.000 C 
ENDBRANCH  17  19
ENDBRANCH  15  17
ENDBRANCH   1  15
BRANCH   7  20
ATOM     20  O   UNL     1       3.421   5.371   7.141  0.00  0.00    +0.000 OA
ATOM     21  H   UNL     1       3.754   6.043   7.802  0.00  0.00    +0.000 HD
ENDBRANCH   7  20
BRANCH   2  22
ATOM     22  C   UNL     1       5.325   1.110   2.951  0.00  0.00    +0.000 C 
BRANCH  22  23
ATOM     23  C   UNL     1       6.199   2.037   2.123  0.00  0.00    +0.000 A 
ATOM     24  C   UNL     1       5.599   2.915   1.151  0.00  0.00    +0.000 A 
ATOM     25  C   UNL     1       4.171   2.914   0.965  0.00  0.00    +0.000 A 
ATOM     26  C   UNL     1       3.571   3.791  -0.007  0.00  0.00    +0.000 A 
ATOM     27  F   UNL     1       2.252   3.790  -0.179  0.00  0.00    +0.000 F 
ATOM     28  C   UNL     1       4.399   4.670  -0.792  0.00  0.00    +0.000 A 
ATOM     29  C   UNL     1       7.627   2.038   2.309  0.00  0.00    +0.000 A 
ENDBRANCH  22  23
ENDBRANCH   2  22
TORSDOF 6
