REMARK  Name = 
REMARK  6 active torsions:
REMARK  status: ('A' for Active; 'I' for Inactive)
REMARK    1  A    between atoms: C_2  and  C_19
REMARK    2  A    between atoms: N_3  and  N_4
REMARK    3  A    between atoms: N_4  and  C_5
REMARK    4  A    between atoms: C_5  and  N_7
REMARK    5  A    between atoms: C_8  and  C_10
REMARK    6  A    between atoms: C_14  and  N_15
REMARK                            x       y       z     vdW  Elec       q    Type
REMARK                         _______ _______ _______ _____ _____    ______ ____
ROOT
ATOM      1  C   UNL     1       5.214   0.752  -2.478  0.00  0.00    +0.000 C 
ATOM      2  S   UNL     1       6.834   0.752  -2.478  0.00  0.00    +0.000 S 
ENDROOT
BRANCH   1   3
ATOM      3  N   UNL     1       4.479   1.156  -3.685  0.00  0.00    +0.000 N 
ATOM      4  C   UNL     1       3.009   1.156  -3.685  0.00  0.00    +0.000 C 
ATOM      5  O   UNL     1       2.374   1.505  -4.729  0.00  0.00    +0.000 OA
ATOM      6  H   UNL     1       4.989   1.436  -4.523  0.00  0.00    +0.000 HD
BRANCH   4   7
ATOM      7  C   UNL     1       2.249   0.738  -2.437  0.00  0.00    +0.000 A 
ATOM      8  C   UNL     1       0.809   0.738  -2.437  0.00  0.00    +0.000 A 
ATOM      9  C   UNL     1       0.089   1.134  -3.620  0.00  0.00    +0.000 A 
ATOM     10  C   UNL     1      -1.351   1.134  -3.620  0.00  0.00    +0.000 A 
ATOM     11  C   UNL     1      -2.071   1.529  -4.803  0.00  0.00    +0.000 A 
ATOM     12  C   UNL     1       2.969   0.342  -1.254  0.00  0.00    +0.000 A 
BRANCH  11  13
ATOM     13  N   UNL     1      -1.336   1.933  -6.010  0.00  0.00    +0.000 N 
ATOM     14  O   UNL     1      -0.110   1.933  -6.010  0.00  0.00    +0.000 OA
ATOM     15  O   UNL     1      -2.021   2.310  -7.135  0.00  0.00    +0.000 OA
ENDBRANCH  11  13
ENDBRANCH   4   7
ENDBRANCH   1   3
BRANCH   1  16
ATOM     16  N   UNL     1       4.479   0.348  -1.271  0.00  0.00    +0.000 N 
ATOM     17  H   UNL     1       4.989   0.068  -0.433  0.00  0.00    +0.000 HD
BRANCH  16  20
ATOM     18  O   UNL     1       1.053  -0.056  -0.064  0.00  0.00    +0.000 OA
ATOM     19  C   UNL     1       2.324  -0.056  -0.064  0.00  0.00    +0.000 C 
ATOM     20  N   UNL     1       3.059   0.348  -1.271  0.00  0.00    +0.000 N 
ATOM     21  H   UNL     1       2.549   0.628  -2.109  0.00  0.00    +0.000 HD
BRANCH  19  22
ATOM     22  C   UNL     1       3.084  -0.474   1.185  0.00  0.00    +0.000 A 
ATOM     23  C   UNL     1       4.524  -0.474   1.185  0.00  0.00    +0.000 A 
ATOM     24  C   UNL     1       5.244  -0.078   0.002  0.00  0.00    +0.000 A 
ATOM     25  C   UNL     1       6.685  -0.078   0.002  0.00  0.00    +0.000 A 
ATOM     26 BR   UNL     1       7.665   0.461  -1.608  0.00  0.00    +0.000 Br
ATOM     27  C   UNL     1       7.405  -0.474   1.185  0.00  0.00    +0.000 A 
ATOM     28  C   UNL     1       2.364  -0.869   2.368  0.00  0.00    +0.000 A 
ENDBRANCH  19  22
ENDBRANCH  16  20
ENDBRANCH   1  16
TORSDOF 6
