REMARK  Name = 
REMARK  8 active torsions:
REMARK  status: ('A' for Active; 'I' for Inactive)
REMARK    1  A    between atoms: C_1  and  C_2
REMARK    2  A    between atoms: N_4  and  C_5
REMARK    3  A    between atoms: C_14  and  C_15
REMARK    4  A    between atoms: N_17  and  C_18
REMARK    5  A    between atoms: C_20  and  C_21
REMARK    6  A    between atoms: C_21  and  N_22
REMARK    7  A    between atoms: N_25  and  C_26
REMARK    8  A    between atoms: C_30  and  C_31
REMARK                            x       y       z     vdW  Elec       q    Type
REMARK                         _______ _______ _______ _____ _____    ______ ____
ROOT
ATOM      1  C   UNL     1      -5.441   0.996   0.282  0.00  0.00    +0.000 C 
ATOM      2  O   UNL     1      -6.254   0.991  -0.695  0.00  0.00    +0.000 OA
ATOM      3  N   UNL     1      -5.939   0.829   1.654  0.00  0.00    +0.000 N 
ATOM      4  H   UNL     1      -6.938   0.709   1.823  0.00  0.00    +0.000 HD
ENDROOT
BRANCH   1  12
ATOM      5  C   UNL     1       1.056   0.055   0.061  0.00  0.00    +0.000 C 
ATOM      6  C   UNL     1       0.550  -0.986  -0.923  0.00  0.00    +0.000 C 
ATOM      7  C   UNL     1      -0.970  -0.986  -0.923  0.00  0.00    +0.000 C 
ATOM      8  N   UNL     1      -1.460   0.342  -1.319  0.00  0.00    +0.000 N 
ATOM      9  C   UNL     1      -1.105   1.525  -0.522  0.00  0.00    +0.000 C 
ATOM     10  C   UNL     1      -1.620   1.352   0.897  0.00  0.00    +0.000 A 
ATOM     11  C   UNL     1      -3.031   1.182   1.136  0.00  0.00    +0.000 A 
ATOM     12  C   UNL     1      -3.953   1.176   0.030  0.00  0.00    +0.000 A 
ATOM     13  C   UNL     1      -3.464   1.339  -1.315  0.00  0.00    +0.000 A 
ATOM     14  C   UNL     1      -2.054   1.509  -1.554  0.00  0.00    +0.000 A 
ATOM     15  C   UNL     1       1.056  -2.359  -0.513  0.00  0.00    +0.000 A 
BRANCH   8  16
ATOM     16  C   UNL     1      -2.306   0.487  -2.513  0.00  0.00    +0.000 A 
ATOM     17  C   UNL     1      -2.653  -0.672  -3.295  0.00  0.00    +0.000 A 
ATOM     18  N   UNL     1      -2.189  -1.930  -2.919  0.00  0.00    +0.000 NA
ATOM     19  C   UNL     1      -1.388  -2.068  -1.788  0.00  0.00    +0.000 A 
ATOM     20  N   UNL     1      -1.052  -0.947  -1.032  0.00  0.00    +0.000 NA
ATOM     21  C   UNL     1      -2.786   1.788  -2.902  0.00  0.00    +0.000 A 
ENDBRANCH   8  16
ENDBRANCH   1  12
BRANCH   3  22
ATOM     22  C   UNL     1      -4.998   0.836   2.784  0.00  0.00    +0.000 A 
ATOM     23  C   UNL     1      -3.588   1.006   2.545  0.00  0.00    +0.000 A 
ATOM     24  C   UNL     1      -3.100   1.169   1.200  0.00  0.00    +0.000 A 
ATOM     25  C   UNL     1      -4.022   1.163   0.094  0.00  0.00    +0.000 A 
ATOM     26  C   UNL     1      -5.432   0.993   0.332  0.00  0.00    +0.000 A 
ATOM     27  C   UNL     1      -5.486   0.672   4.129  0.00  0.00    +0.000 A 
BRANCH  26  28
ATOM     28  C   UNL     1      -5.947   0.820   1.752  0.00  0.00    +0.000 C 
ATOM     29  C   UNL     1      -5.580   2.044   2.576  0.00  0.00    +0.000 C 
ATOM     30  C   UNL     1      -5.318  -0.416   2.372  0.00  0.00    +0.000 C 
ENDBRANCH  26  28
BRANCH  24  31
ATOM     31  C   UNL     1      -1.611   1.349   0.948  0.00  0.00    +0.000 C 
BRANCH  31  32
ATOM     32  N   UNL     1      -1.126   0.261   0.087  0.00  0.00    +0.000 NA
ATOM     33  C   UNL     1      -1.358  -1.030   0.751  0.00  0.00    +0.000 C 
ATOM     34  C   UNL     1      -0.613  -1.061   2.075  0.00  0.00    +0.000 C 
ATOM     35  N   UNL     1      -1.099   0.027   2.936  0.00  0.00    +0.000 NA
ATOM     36  C   UNL     1      -0.378  -0.002   4.217  0.00  0.00    +0.000 C 
ATOM     37  C   UNL     1      -0.866   1.318   2.273  0.00  0.00    +0.000 C 
ATOM     38  C   UNL     1       0.314   0.434  -0.156  0.00  0.00    +0.000 C 
ENDBRANCH  31  32
ENDBRANCH  24  31
ENDBRANCH   3  22
TORSDOF 6
