REMARK  Name = 
REMARK  5 active torsions:
REMARK  status: ('A' for Active; 'I' for Inactive)
REMARK    1  A    between atoms: C_1  and  C_2
REMARK    2  A    between atoms: C_2  and  N_3
REMARK    3  A    between atoms: C_4  and  C_5
REMARK    4  A    between atoms: C_11  and  C_12
REMARK    5  A    between atoms: C_12  and  C_14
REMARK                            x       y       z     vdW  Elec       q    Type
REMARK                         _______ _______ _______ _____ _____    ______ ____
ROOT
ATOM      1  N   UNL     1       1.029   1.796  -1.715  0.00  0.00    +0.000 N 
ATOM      2  C   UNL     1       2.398   1.873  -1.958  0.00  0.00    +0.000 A 
ATOM      3  C   UNL     1       2.878   2.283  -3.252  0.00  0.00    +0.000 A 
ATOM      4  C   UNL     1       4.294   2.362  -3.503  0.00  0.00    +0.000 A 
ATOM      5  C   UNL     1       4.774   2.773  -4.798  0.00  0.00    +0.000 A 
ATOM      6  C   UNL     1       3.838   3.103  -5.841  0.00  0.00    +0.000 A 
ATOM      7  C   UNL     1       4.318   3.514  -7.135  0.00  0.00    +0.000 A 
ATOM      8  C   UNL     1       3.382   3.845  -8.179  0.00  0.00    +0.000 A 
ATOM      9  C   UNL     1       0.124   2.116  -2.725  0.00  0.00    +0.000 A 
ENDROOT
BRANCH   2  10
ATOM     10  C   UNL     1       3.386   1.524  -0.857  0.00  0.00    +0.000 A 
ATOM     11  C   UNL     1       2.906   1.113   0.438  0.00  0.00    +0.000 A 
ATOM     12  C   UNL     1       1.490   1.034   0.689  0.00  0.00    +0.000 A 
ATOM     13  C   UNL     1       1.010   0.623   1.983  0.00  0.00    +0.000 A 
ATOM     14  C   UNL     1      -0.406   0.544   2.234  0.00  0.00    +0.000 A 
ATOM     15  C   UNL     1       4.802   1.603  -1.108  0.00  0.00    +0.000 A 
ENDBRANCH   2  10
BRANCH   1  17
ATOM     16  C   UNL     1       1.045  -0.023  -0.086  0.00  0.00    +0.000 C 
ATOM     17  C   UNL     1       0.539   1.377  -0.394  0.00  0.00    +0.000 C 
ENDBRANCH   1  17
BRANCH   3  18
ATOM     18  C   UNL     1       1.890   2.632  -4.354  0.00  0.00    +0.000 C 
ATOM     19  O   UNL     1       2.314   2.994  -5.496  0.00  0.00    +0.000 OA
BRANCH  18  20
ATOM     20  C   UNL     1       0.396   2.548  -4.089  0.00  0.00    +0.000 C 
ATOM     21 CL   UNL     1      -0.034   0.881  -3.638  0.00  0.00    +0.000 Cl
ENDBRANCH  18  20
ENDBRANCH   3  18
TORSDOF 4
