REMARK  Name = 
REMARK  6 active torsions:
REMARK  status: ('A' for Active; 'I' for Inactive)
REMARK    1  A    between atoms: C_1  and  O_2
REMARK    2  A    between atoms: O_2  and  C_3
REMARK    3  A    between atoms: C_8  and  O_9
REMARK    4  A    between atoms: O_9  and  C_10
REMARK    5  A    between atoms: C_26  and  C_27
REMARK    6  A    between atoms: C_26  and  C_28
REMARK                            x       y       z     vdW  Elec       q    Type
REMARK                         _______ _______ _______ _____ _____    ______ ____
ROOT
ATOM      1  C   UNL     1      -0.905  -1.236   0.122  0.00  0.00    +0.000 A 
ATOM      2  C   UNL     1      -1.625  -0.308  -0.710  0.00  0.00    +0.000 A 
ATOM      3  C   UNL     1      -0.905   0.621  -1.543  0.00  0.00    +0.000 A 
ATOM      4  C   UNL     1       0.535   0.621  -1.543  0.00  0.00    +0.000 A 
ATOM      5  C   UNL     1       1.255  -0.308  -0.710  0.00  0.00    +0.000 A 
ATOM      6  C   UNL     1      -1.625  -2.165   0.955  0.00  0.00    +0.000 A 
ATOM      7  C   UNL     1       1.295   1.601  -2.421  0.00  0.00    +0.000 C 
ATOM      8  C   UNL     1       2.027  -2.654  -5.056  0.00  0.00    +0.000 C 
ATOM      9  O   UNL     1       3.061  -3.371  -4.876  0.00  0.00    +0.000 OA
ATOM     10  C   UNL     1       1.033  -2.408  -3.932  0.00  0.00    +0.000 A 
ATOM     11  C   UNL     1       0.439  -3.522  -3.240  0.00  0.00    +0.000 A 
ATOM     12  C   UNL     1      -0.503  -3.289  -2.175  0.00  0.00    +0.000 A 
ATOM     13  C   UNL     1      -1.097  -4.403  -1.483  0.00  0.00    +0.000 A 
ATOM     14  C   UNL     1      -5.161  -6.637  -0.400  0.00  0.00    +0.000 A 
ATOM     15  C   UNL     1       0.685  -1.060  -3.561  0.00  0.00    +0.000 A 
ATOM     16  O   UNL     1       1.271   0.038  -4.244  0.00  0.00    +0.000 OA
ATOM     17  C   UNL     1       0.928   1.367  -3.877  0.00  0.00    +0.000 C 
ATOM     18  C   UNL     1       1.688   2.347  -4.756  0.00  0.00    +0.000 C 
ATOM     19  O   UNL     1      -1.615   1.537  -2.363  0.00  0.00    +0.000 OA
ATOM     20  C   UNL     1      -3.651  -6.685  -0.235  0.00  0.00    +0.000 C 
ATOM     21  C   UNL     1      -2.850  -6.782  -1.331  0.00  0.00    +0.000 C 
ATOM     22  C   UNL     1      -1.340  -6.830  -1.166  0.00  0.00    +0.000 C 
ATOM     23  C   UNL     1      -1.129  -8.321  -0.958  0.00  0.00    +0.000 C 
ATOM     24  C   UNL     1      -0.315  -6.424  -0.119  0.00  0.00    +0.000 C 
ATOM     25  O   UNL     1      -0.754  -5.731  -1.849  0.00  0.00    +0.000 OA
ENDROOT
BRANCH   1  27
ATOM     26  C   UNL     1       0.988   0.093  -0.034  0.00  0.00    +0.000 C 
ATOM     27  O   UNL     1       0.515  -1.236   0.122  0.00  0.00    +0.000 OA
ENDBRANCH   1  27
BRANCH   6  28
ATOM     28  O   UNL     1      -2.530  -2.980   1.686  0.00  0.00    +0.000 OA
ATOM     29  C   UNL     1      -3.511  -2.163   2.307  0.00  0.00    +0.000 C 
ENDBRANCH   6  28
TORSDOF 2
