REMARK  Name = 
REMARK  5 active torsions:
REMARK  status: ('A' for Active; 'I' for Inactive)
REMARK    1  A    between atoms: C_1  and  N_2
REMARK    2  A    between atoms: N_2  and  C_3
REMARK    3  A    between atoms: C_9  and  C_10
REMARK    4  A    between atoms: C_10  and  C_12
REMARK    5  A    between atoms: C_13  and  C_14
REMARK                            x       y       z     vdW  Elec       q    Type
REMARK                         _______ _______ _______ _____ _____    ______ ____
ROOT
ATOM      1  C   UNL     1      -0.307   2.056   0.546  0.00  0.00    +0.000 A 
ATOM      2  C   UNL     1      -0.655   2.259  -0.837  0.00  0.00    +0.000 A 
ATOM      3  C   UNL     1      -0.175   1.346  -1.842  0.00  0.00    +0.000 A 
ATOM      4  C   UNL     1      -0.523   1.549  -3.225  0.00  0.00    +0.000 A 
ATOM      5 BR   UNL     1       0.131   0.307  -4.593  0.00  0.00    +0.000 Br
ATOM      6  C   UNL     1      -1.351   2.665  -3.603  0.00  0.00    +0.000 A 
ATOM      7  C   UNL     1      -1.831   3.579  -2.598  0.00  0.00    +0.000 A 
ATOM      8  C   UNL     1      -0.787   2.969   1.551  0.00  0.00    +0.000 A 
ATOM      9  O   UNL     1      -0.480   2.790   2.771  0.00  0.00    +0.000 OA
ENDROOT
BRANCH   1  11
ATOM     10  C   UNL     1       1.028  -0.015  -0.095  0.00  0.00    +0.000 C 
ATOM     11  N   UNL     1       0.538   0.917   0.931  0.00  0.00    +0.000 N 
ATOM     12  H   UNL     1       0.785   0.773   1.910  0.00  0.00    +0.000 HD
ENDBRANCH   1  11
BRANCH   7  13
ATOM     13  C   UNL     1      -1.463   3.364  -1.138  0.00  0.00    +0.000 C 
ATOM     14  O   UNL     1      -0.733   2.379  -0.805  0.00  0.00    +0.000 OA
BRANCH  13  15
ATOM     15  C   UNL     1      -1.970   4.328  -0.078  0.00  0.00    +0.000 C 
ATOM     16  C   UNL     1      -2.752   5.382  -0.434  0.00  0.00    +0.000 C 
BRANCH  16  17
ATOM     17  C   UNL     1      -3.259   6.346   0.626  0.00  0.00    +0.000 A 
ATOM     18  C   UNL     1      -2.911   6.143   2.009  0.00  0.00    +0.000 A 
ATOM     19  C   UNL     1      -2.083   5.026   2.387  0.00  0.00    +0.000 A 
ATOM     20  C   UNL     1      -1.735   4.823   3.769  0.00  0.00    +0.000 A 
ATOM     21 CL   UNL     1      -0.712   3.444   4.236  0.00  0.00    +0.000 Cl
ATOM     22  C   UNL     1      -2.215   5.736   4.774  0.00  0.00    +0.000 A 
ATOM     23  C   UNL     1      -4.087   7.462   0.249  0.00  0.00    +0.000 A 
ATOM     24 CL   UNL     1      -4.517   7.713  -1.460  0.00  0.00    +0.000 Cl
ENDBRANCH  16  17
ENDBRANCH  13  15
ENDBRANCH   7  13
TORSDOF 4
