REMARK  Name = 
REMARK  7 active torsions:
REMARK  status: ('A' for Active; 'I' for Inactive)
REMARK    1  A    between atoms: C_1  and  C_2
REMARK    2  A    between atoms: C_2  and  O_3
REMARK    3  A    between atoms: O_3  and  C_4
REMARK    4  A    between atoms: C_4  and  C_6
REMARK    5  A    between atoms: C_7  and  C_8
REMARK    6  A    between atoms: C_8  and  C_9
REMARK    7  A    between atoms: C_20  and  O_21
REMARK                            x       y       z     vdW  Elec       q    Type
REMARK                         _______ _______ _______ _____ _____    ______ ____
ROOT
ATOM      1  C   UNL     1       2.869  -0.006   4.017  0.00  0.00    +0.000 A 
ATOM      2  C   UNL     1       4.285   0.081   4.265  0.00  0.00    +0.000 A 
ATOM      3  N   UNL     1       4.749   0.514   5.505  0.00  0.00    +0.000 N 
ATOM      4  C   UNL     1       3.844   0.864   6.504  0.00  0.00    +0.000 A 
ATOM      5  C   UNL     1       1.516   2.396  10.886  0.00  0.00    +0.000 A 
ATOM      6  C   UNL     1       1.036   1.948   9.604  0.00  0.00    +0.000 A 
ATOM      7  C   UNL     1       1.972   1.587   8.571  0.00  0.00    +0.000 A 
ATOM      8  C   UNL     1       1.492   1.138   7.289  0.00  0.00    +0.000 A 
ATOM      9  C   UNL     1       0.076   1.051   7.041  0.00  0.00    +0.000 A 
ATOM     10  C   UNL     1      -0.404   0.603   5.759  0.00  0.00    +0.000 A 
ATOM     11  C   UNL     1      -1.820   0.516   5.511  0.00  0.00    +0.000 A 
ATOM     12  C   UNL     1       1.948   0.329   4.974  0.00  0.00    +0.000 A 
ATOM     13  C   UNL     1       2.428   0.777   6.256  0.00  0.00    +0.000 A 
ATOM     14  H   UNL     1       5.752   0.576   5.681  0.00  0.00    +0.000 HD
ENDROOT
BRANCH   1  15
ATOM     15  C   UNL     1       2.362  -0.479   2.664  0.00  0.00    +0.000 C 
ATOM     16  O   UNL     1       3.188  -0.798   1.753  0.00  0.00    +0.000 OA
BRANCH  15  17
ATOM     17  O   UNL     1       0.966  -0.565   2.419  0.00  0.00    +0.000 OA
BRANCH  17  19
ATOM     18  C   UNL     1       0.999  -0.072   0.070  0.00  0.00    +0.000 C 
ATOM     19  C   UNL     1       0.493  -1.007   1.156  0.00  0.00    +0.000 C 
ENDBRANCH  17  19
ENDBRANCH  15  17
ENDBRANCH   1  15
BRANCH   7  20
ATOM     20  O   UNL     1       3.368   1.672   8.816  0.00  0.00    +0.000 OA
ATOM     21  H   UNL     1       3.701   1.983   9.706  0.00  0.00    +0.000 HD
ENDBRANCH   7  20
BRANCH   2  22
ATOM     22  C   UNL     1       5.272  -0.301   3.175  0.00  0.00    +0.000 C 
BRANCH  22  23
ATOM     23  C   UNL     1       6.146   0.898   2.841  0.00  0.00    +0.000 A 
ATOM     24  C   UNL     1       5.546   2.114   2.357  0.00  0.00    +0.000 A 
ATOM     25  C   UNL     1       4.118   2.195   2.189  0.00  0.00    +0.000 A 
ATOM     26  C   UNL     1       3.518   3.412   1.705  0.00  0.00    +0.000 A 
ATOM     27  C   UNL     1       2.090   3.493   1.538  0.00  0.00    +0.000 A 
ATOM     28  F   UNL     1       1.325   2.445   1.830  0.00  0.00    +0.000 F 
ATOM     29  C   UNL     1       7.574   0.816   3.009  0.00  0.00    +0.000 A 
ENDBRANCH  22  23
ENDBRANCH   2  22
TORSDOF 6
