REMARK  Name = 
REMARK  5 active torsions:
REMARK  status: ('A' for Active; 'I' for Inactive)
REMARK    1  A    between atoms: C_1  and  C_2
REMARK    2  A    between atoms: C_10  and  C_11
REMARK    3  A    between atoms: C_11  and  C_12
REMARK    4  A    between atoms: C_12  and  N_13
REMARK    5  A    between atoms: C_14  and  C_16
REMARK                            x       y       z     vdW  Elec       q    Type
REMARK                         _______ _______ _______ _____ _____    ______ ____
ROOT
ATOM      1  N   UNL     1       1.327   1.442   1.393  0.00  0.00    +0.000 N 
ATOM      2  C   UNL     1       1.682   2.668   0.663  0.00  0.00    +0.000 C 
ATOM      3  O   UNL     1       2.413   2.600  -0.375  0.00  0.00    +0.000 OA
ATOM      4  H   UNL     1       1.667   0.538   1.066  0.00  0.00    +0.000 HD
ENDROOT
BRANCH   2   5
ATOM      5  C   UNL     1       1.175   4.016   1.149  0.00  0.00    +0.000 A 
ATOM      6  C   UNL     1       1.523   5.217   0.435  0.00  0.00    +0.000 A 
ATOM      7  N   UNL     1       2.324   5.143  -0.703  0.00  0.00    +0.000 NA
ATOM      8  C   UNL     1       2.788   3.908  -1.149  0.00  0.00    +0.000 A 
ATOM      9  N   UNL     1       2.433   2.682  -0.419  0.00  0.00    +0.000 N 
ATOM     10  C   UNL     1       2.923   1.378  -0.889  0.00  0.00    +0.000 A 
ATOM     11  C   UNL     1       3.751   1.302  -2.065  0.00  0.00    +0.000 A 
ATOM     12  C   UNL     1       4.099   2.503  -2.780  0.00  0.00    +0.000 A 
ATOM     13  F   UNL     1       4.864   2.432  -3.866  0.00  0.00    +0.000 F 
ATOM     14  C   UNL     1       3.619   3.780  -2.319  0.00  0.00    +0.000 A 
ATOM     15  C   UNL     1       2.791   3.856  -1.143  0.00  0.00    +0.000 A 
ATOM     16  N   UNL     1       2.587   0.217  -0.198  0.00  0.00    +0.000 NA
ATOM     17  N   UNL     1       3.589   3.834  -2.286  0.00  0.00    +0.000 NA
ATOM     18  C   UNL     1       0.347   4.092   2.325  0.00  0.00    +0.000 A 
ATOM     19  H   UNL     1       1.847   2.736   0.414  0.00  0.00    +0.000 HD
ENDBRANCH   2   5
BRANCH   1  20
ATOM     20  C   UNL     1       0.482   1.520   2.593  0.00  0.00    +0.000 C 
BRANCH  20  21
ATOM     21  C   UNL     1      -0.785   0.709   2.374  0.00  0.00    +0.000 C 
BRANCH  21  31
ATOM     22  C   UNL     1       0.917   0.017   0.053  0.00  0.00    +0.000 C 
ATOM     23  C   UNL     1       0.410  -1.078   0.977  0.00  0.00    +0.000 A 
ATOM     24  N   UNL     1       0.747  -2.407   0.731  0.00  0.00    +0.000 N 
ATOM     25  C   UNL     1       1.547  -2.733  -0.361  0.00  0.00    +0.000 A 
ATOM     26  C   UNL     1       2.027  -1.695  -1.236  0.00  0.00    +0.000 A 
ATOM     27  C   UNL     1       1.680  -0.321  -0.983  0.00  0.00    +0.000 A 
ATOM     28  C   UNL     1       2.160   0.717  -1.858  0.00  0.00    +0.000 A 
ATOM     29  C   UNL     1       1.812   2.092  -1.604  0.00  0.00    +0.000 A 
ATOM     30  C   UNL     1       1.895  -4.107  -0.615  0.00  0.00    +0.000 A 
ATOM     31  C   UNL     1      -0.418  -0.742   2.106  0.00  0.00    +0.000 A 
ATOM     32  H   UNL     1       0.407  -3.142   1.352  0.00  0.00    +0.000 HD
ENDBRANCH  21  31
ENDBRANCH  20  21
ENDBRANCH   1  20
TORSDOF 4
