REMARK  Name = 
REMARK  6 active torsions:
REMARK  status: ('A' for Active; 'I' for Inactive)
REMARK    1  A    between atoms: C_1  and  C_2
REMARK    2  A    between atoms: N_4  and  S_5
REMARK    3  A    between atoms: S_5  and  C_8
REMARK    4  A    between atoms: C_11  and  C_12
REMARK    5  A    between atoms: C_17  and  C_18
REMARK    6  A    between atoms: C_32  and  C_33
REMARK                            x       y       z     vdW  Elec       q    Type
REMARK                         _______ _______ _______ _____ _____    ______ ____
ROOT
ATOM      1  C   UNL     1      -8.687   1.060  -0.941  0.00  0.00    +0.000 C 
ATOM      2  O   UNL     1      -9.936   1.004  -1.166  0.00  0.00    +0.000 OA
ATOM      3  N   UNL     1      -8.197   1.395   0.404  0.00  0.00    +0.000 N 
ATOM      4  C   UNL     1      -6.751   1.459   0.664  0.00  0.00    +0.000 A 
ATOM      5  N   UNL     1      -5.846   1.204  -0.363  0.00  0.00    +0.000 NA
ATOM      6  C   UNL     1      -4.477   1.265  -0.116  0.00  0.00    +0.000 A 
ATOM      7  C   UNL     1      -3.541   1.001  -1.178  0.00  0.00    +0.000 A 
ATOM      8  S   UNL     1      -6.180   1.850   2.234  0.00  0.00    +0.000 S 
ATOM      9  H   UNL     1      -8.859   1.582   1.156  0.00  0.00    +0.000 HD
ENDROOT
BRANCH   6  10
ATOM     10  C   UNL     1      -3.970   1.611   1.275  0.00  0.00    +0.000 A 
ATOM     11  C   UNL     1      -4.906   1.876   2.337  0.00  0.00    +0.000 A 
ATOM     12  C   UNL     1      -6.322   1.812   2.082  0.00  0.00    +0.000 A 
ATOM     13  C   UNL     1      -6.802   1.484   0.764  0.00  0.00    +0.000 A 
ATOM     14  C   UNL     1      -5.866   1.220  -0.298  0.00  0.00    +0.000 A 
ATOM     15  C   UNL     1      -6.346   0.892  -1.616  0.00  0.00    +0.000 A 
ATOM     16  C   UNL     1      -5.410   0.628  -2.678  0.00  0.00    +0.000 A 
ATOM     17  C   UNL     1      -7.258   2.076   3.144  0.00  0.00    +0.000 A 
ATOM     18  O   UNL     1      -2.647   1.671   1.513  0.00  0.00    +0.000 OA
ENDBRANCH   6  10
BRANCH   1  22
ATOM     19  C   UNL     1      -3.931   0.644  -2.614  0.00  0.00    +0.000 A 
ATOM     20  C   UNL     1      -5.347   0.580  -2.869  0.00  0.00    +0.000 A 
ATOM     21  C   UNL     1      -6.283   0.845  -1.807  0.00  0.00    +0.000 A 
ATOM     22  C   UNL     1      -7.699   0.781  -2.062  0.00  0.00    +0.000 A 
ATOM     23  C   UNL     1      -8.179   0.453  -3.380  0.00  0.00    +0.000 A 
ATOM     24  C   UNL     1      -2.995   0.380  -3.676  0.00  0.00    +0.000 A 
BRANCH  19  25
ATOM     25  S   UNL     1      -3.328   1.056  -0.958  0.00  0.00    +0.000 S 
ATOM     26  O   UNL     1      -3.838   0.017   0.044  0.00  0.00    +0.000 OA
ATOM     27  O   UNL     1      -3.838   2.443  -0.559  0.00  0.00    +0.000 OA
BRANCH  25  31
ATOM     28  C   UNL     1       0.949   0.070   0.050  0.00  0.00    +0.000 C 
ATOM     29  C   UNL     1       0.442  -0.276  -1.340  0.00  0.00    +0.000 C 
ATOM     30  C   UNL     1      -1.078  -0.276  -1.340  0.00  0.00    +0.000 C 
ATOM     31  N   UNL     1      -1.568   1.056  -0.958  0.00  0.00    +0.000 NA
ATOM     32  C   UNL     1      -1.078   1.390   0.387  0.00  0.00    +0.000 C 
ATOM     33  C   UNL     1      -1.584   0.359   1.382  0.00  0.00    +0.000 C 
ATOM     34  C   UNL     1      -1.078   0.705   2.773  0.00  0.00    +0.000 C 
ATOM     35  O   UNL     1       0.916  -1.563  -1.710  0.00  0.00    +0.000 OA
ENDBRANCH  25  31
ENDBRANCH  19  25
ENDBRANCH   1  22
TORSDOF 4
