REMARK  Name = 
REMARK  7 active torsions:
REMARK  status: ('A' for Active; 'I' for Inactive)
REMARK    1  A    between atoms: C_2  and  C_3
REMARK    2  A    between atoms: C_4  and  C_5
REMARK    3  A    between atoms: N_12  and  C_13
REMARK    4  A    between atoms: C_13  and  N_15
REMARK    5  A    between atoms: N_15  and  N_16
REMARK    6  A    between atoms: C_17  and  C_19
REMARK    7  A    between atoms: C_21  and  C_22
REMARK                            x       y       z     vdW  Elec       q    Type
REMARK                         _______ _______ _______ _____ _____    ______ ____
ROOT
ATOM      1  C   UNL     1      -4.308   1.645   4.163  0.00  0.00    +0.000 C 
ATOM      2  S   UNL     1      -3.518   2.664   5.143  0.00  0.00    +0.000 S 
ENDROOT
BRANCH   1   5
ATOM      3  O   UNL     1      -5.842  -0.060   2.478  0.00  0.00    +0.000 OA
ATOM      4  C   UNL     1      -6.475   0.866   3.076  0.00  0.00    +0.000 C 
ATOM      5  N   UNL     1      -5.758   1.791   3.965  0.00  0.00    +0.000 N 
ATOM      6  H   UNL     1      -6.266   2.534   4.445  0.00  0.00    +0.000 HD
BRANCH   4   7
ATOM      7  C   UNL     1      -7.974   1.017   2.872  0.00  0.00    +0.000 C 
ATOM      8  C   UNL     1      -8.651   2.008   3.512  0.00  0.00    +0.000 C 
BRANCH   8   9
ATOM      9  C   UNL     1     -10.150   2.159   3.307  0.00  0.00    +0.000 A 
ATOM     10  C   UNL     1     -10.852   1.252   2.436  0.00  0.00    +0.000 A 
ATOM     11  C   UNL     1     -10.135   0.203   1.759  0.00  0.00    +0.000 A 
ATOM     12  C   UNL     1     -10.838  -0.703   0.887  0.00  0.00    +0.000 A 
ATOM     13  F   UNL     1     -10.176  -1.672   0.262  0.00  0.00    +0.000 F 
ATOM     14  C   UNL     1     -12.258  -0.560   0.694  0.00  0.00    +0.000 A 
ATOM     15  C   UNL     1     -10.867   3.208   3.985  0.00  0.00    +0.000 A 
ENDBRANCH   8   9
ENDBRANCH   4   7
ENDBRANCH   1   5
BRANCH   1  16
ATOM     16  N   UNL     1      -3.576   0.574   3.471  0.00  0.00    +0.000 N 
ATOM     17  H   UNL     1      -2.571   0.473   3.609  0.00  0.00    +0.000 HD
BRANCH  16  18
ATOM     18  N   UNL     1      -4.269  -0.320   2.613  0.00  0.00    +0.000 N 
ATOM     19  C   UNL     1      -3.537  -1.390   1.921  0.00  0.00    +0.000 C 
ATOM     20  O   UNL     1      -4.157  -2.190   1.152  0.00  0.00    +0.000 OA
ATOM     21  H   UNL     1      -5.275  -0.218   2.475  0.00  0.00    +0.000 HD
BRANCH  19  22
ATOM     22  C   UNL     1      -2.043  -1.555   2.145  0.00  0.00    +0.000 C 
ATOM     23  C   UNL     1      -2.043   0.442   3.618  0.00  0.00    +0.000 C 
ATOM     24  C   UNL     1      -1.676  -1.030   3.523  0.00  0.00    +0.000 C 
BRANCH  24  25
ATOM     25  C   UNL     1      -0.181  -1.195   3.746  0.00  0.00    +0.000 A 
ATOM     26  C   UNL     1       0.412  -0.768   4.987  0.00  0.00    +0.000 A 
ATOM     27  C   UNL     1      -0.407  -0.164   6.006  0.00  0.00    +0.000 A 
ATOM     28  C   UNL     1       0.186   0.263   7.247  0.00  0.00    +0.000 A 
ATOM     29  C   UNL     1      -0.633   0.867   8.267  0.00  0.00    +0.000 A 
ATOM     30  C   UNL     1       0.638  -1.799   2.727  0.00  0.00    +0.000 A 
ENDBRANCH  24  25
ENDBRANCH  19  22
ENDBRANCH  16  18
ENDBRANCH   1  16
TORSDOF 7
