REMARK  Name = 
REMARK  13 active torsions:
REMARK  status: ('A' for Active; 'I' for Inactive)
REMARK    1  A    between atoms: C_1  and  C_2
REMARK    2  A    between atoms: C_2  and  C_3
REMARK    3  A    between atoms: C_2  and  N_33
REMARK    4  A    between atoms: C_4  and  C_5
REMARK    5  A    between atoms: C_9  and  C_10
REMARK    6  A    between atoms: N_12  and  C_13
REMARK    7  A    between atoms: C_13  and  C_14
REMARK    8  A    between atoms: C_14  and  C_15
REMARK    9  A    between atoms: C_15  and  C_16
REMARK   10  A    between atoms: C_15  and  C_22
REMARK   11  A    between atoms: C_25  and  S_26
REMARK   12  A    between atoms: S_26  and  N_27
REMARK   13  A    between atoms: N_33  and  O_34
REMARK                            x       y       z     vdW  Elec       q    Type
REMARK                         _______ _______ _______ _____ _____    ______ ____
ROOT
ATOM      1  C   UNL     1       6.113   0.269  -0.752  0.00  0.00    +0.000 C 
ATOM      2  O   UNL     1       4.883  -0.050  -0.755  0.00  0.00    +0.000 OA
ATOM      3  N   UNL     1       7.085  -0.543  -1.498  0.00  0.00    +0.000 N 
ATOM      4  H   UNL     1       6.771  -1.363  -2.019  0.00  0.00    +0.000 HD
ENDROOT
BRANCH   1   9
ATOM      5  C   UNL     1       1.887   2.359   1.479  0.00  0.00    +0.000 A 
ATOM      6  C   UNL     1       3.281   2.720   1.483  0.00  0.00    +0.000 A 
ATOM      7  C   UNL     1       4.233   1.924   0.752  0.00  0.00    +0.000 A 
ATOM      8  C   UNL     1       5.628   2.285   0.755  0.00  0.00    +0.000 A 
ATOM      9  C   UNL     1       6.580   1.490   0.024  0.00  0.00    +0.000 A 
ATOM     10  C   UNL     1       0.935   3.154   2.211  0.00  0.00    +0.000 A 
BRANCH   5  12
ATOM     11  C   UNL     1       1.020   0.090   0.038  0.00  0.00    +0.000 C 
ATOM     12  C   UNL     1       1.421   1.138   0.703  0.00  0.00    +0.000 C 
BRANCH  11  14
ATOM     13  C   UNL     1       1.020  -2.390  -0.068  0.00  0.00    +0.000 C 
ATOM     14  C   UNL     1       0.514  -1.119  -0.731  0.00  0.00    +0.000 C 
BRANCH  14  15
ATOM     15  N   UNL     1      -0.956  -1.119  -0.731  0.00  0.00    +0.000 N 
ATOM     16  C   UNL     1      -1.691  -1.173   0.541  0.00  0.00    +0.000 C 
ATOM     17  N   UNL     1      -0.956  -1.227   1.813  0.00  0.00    +0.000 N 
ATOM     18  O   UNL     1      -2.962  -1.173   0.541  0.00  0.00    +0.000 OA
ATOM     19  H   UNL     1      -1.466  -1.265   2.695  0.00  0.00    +0.000 HD
ATOM     20  H   UNL     1       0.064  -1.227   1.813  0.00  0.00    +0.000 HD
BRANCH  15  21
ATOM     21  O   UNL     1      -1.641  -1.069  -1.916  0.00  0.00    +0.000 OA
ATOM     22  H   UNL     1      -0.992  -1.036  -2.676  0.00  0.00    +0.000 HD
ENDBRANCH  15  21
ENDBRANCH  14  15
ENDBRANCH  11  14
ENDBRANCH   5  12
ENDBRANCH   1   9
BRANCH   3  23
ATOM     23  C   UNL     1       8.508  -0.175  -1.494  0.00  0.00    +0.000 C 
BRANCH  23  24
ATOM     24  C   UNL     1       9.325  -1.315  -0.910  0.00  0.00    +0.000 C 
BRANCH  24  25
ATOM     25  C   UNL     1       9.127  -2.564  -1.754  0.00  0.00    +0.000 C 
BRANCH  25  26
ATOM     26  C   UNL     1       9.584  -2.291  -3.178  0.00  0.00    +0.000 A 
ATOM     27  C   UNL     1       8.956  -1.248  -3.948  0.00  0.00    +0.000 A 
ATOM     28  C   UNL     1       7.896  -0.464  -3.368  0.00  0.00    +0.000 A 
ATOM     29  C   UNL     1       7.269   0.579  -4.138  0.00  0.00    +0.000 A 
ATOM     30  C   UNL     1       6.209   1.363  -3.559  0.00  0.00    +0.000 A 
ATOM     31  C   UNL     1      10.644  -3.075  -3.757  0.00  0.00    +0.000 A 
ENDBRANCH  25  26
BRANCH  25  32
ATOM     32  C   UNL     1       9.945  -3.705  -1.170  0.00  0.00    +0.000 A 
ATOM     33  C   UNL     1      11.375  -3.583  -1.059  0.00  0.00    +0.000 A 
ATOM     34  C   UNL     1      12.032  -2.379  -1.502  0.00  0.00    +0.000 A 
ATOM     35  C   UNL     1      13.462  -2.257  -1.391  0.00  0.00    +0.000 A 
ATOM     36  C   UNL     1      14.237  -3.338  -0.838  0.00  0.00    +0.000 A 
ATOM     37  C   UNL     1       9.288  -4.908  -0.727  0.00  0.00    +0.000 A 
BRANCH  35  38
ATOM     38  S   UNL     1      14.287  -0.745  -1.947  0.00  0.00    +0.000 S 
ATOM     39  O   UNL     1      15.288  -1.087  -3.054  0.00  0.00    +0.000 OA
ATOM     40  O   UNL     1      13.244   0.236  -2.488  0.00  0.00    +0.000 OA
BRANCH  38  41
ATOM     41  N   UNL     1      15.138  -0.009  -0.594  0.00  0.00    +0.000 NA
ATOM     42  H   UNL     1      15.603   0.843  -0.907  0.00  0.00    +0.000 HD
ATOM     43  H   UNL     1      14.471   0.219   0.143  0.00  0.00    +0.000 HD
ENDBRANCH  38  41
ENDBRANCH  35  38
ENDBRANCH  25  32
ENDBRANCH  24  25
ENDBRANCH  23  24
ENDBRANCH   3  23
TORSDOF 12
