MODEL 1
REMARK VINA RESULT:    -6.581      0.000      0.000
REMARK INTER + INTRA:          -9.843
REMARK INTER:                  -8.504
REMARK INTRA:                  -1.339
REMARK UNBOUND:                -1.339
REMARK  Name = 
REMARK  6 active torsions:
REMARK  status: ('A' for Active; 'I' for Inactive)
REMARK    1  A    between atoms: C_1  and  C_2
REMARK    2  A    between atoms: C_5  and  C_6
REMARK    3  A    between atoms: N_8  and  N_9
REMARK    4  A    between atoms: N_9  and  C_10
REMARK    5  A    between atoms: C_10  and  N_12
REMARK    6  A    between atoms: C_13  and  C_15
REMARK                            x       y       z     vdW  Elec       q    Type
REMARK                         _______ _______ _______ _____ _____    ______ ____
ROOT
ATOM      1  N   UNL     1      11.454   4.104  27.778  0.00  0.00    +0.000 N 
ATOM      2  H   UNL     1      11.851   3.320  27.260  0.00  0.00    +0.000 HD
ENDROOT
BRANCH   1   5
ATOM      3  C   UNL     1       9.175   3.456  26.974  0.00  0.00    +0.000 C 
ATOM      4  O   UNL     1       7.929   3.693  26.914  0.00  0.00    +0.000 OA
ATOM      5  N   UNL     1      10.062   4.369  27.711  0.00  0.00    +0.000 N 
ATOM      6  H   UNL     1       9.675   5.191  28.174  0.00  0.00    +0.000 HD
BRANCH   3  11
ATOM      7  C   UNL     1       9.929  -1.542  28.465  0.00  0.00    +0.000 C 
ATOM      8  C   UNL     1      10.433  -1.443  27.034  0.00  0.00    +0.000 A 
ATOM      9  C   UNL     1      10.365  -0.187  26.332  0.00  0.00    +0.000 A 
ATOM     10  C   UNL     1       9.819   0.974  26.987  0.00  0.00    +0.000 A 
ATOM     11  C   UNL     1       9.751   2.229  26.285  0.00  0.00    +0.000 A 
ATOM     12  C   UNL     1      10.228   2.324  24.929  0.00  0.00    +0.000 A 
ATOM     13  C   UNL     1      10.979  -2.605  26.381  0.00  0.00    +0.000 A 
ENDBRANCH   3  11
ENDBRANCH   1   5
BRANCH   1  14
ATOM     14  C   UNL     1      12.327   4.961  28.595  0.00  0.00    +0.000 C 
ATOM     15  S   UNL     1      11.851   5.429  30.072  0.00  0.00    +0.000 S 
BRANCH  14  16
ATOM     16  N   UNL     1      13.630   5.394  28.071  0.00  0.00    +0.000 N 
ATOM     17  C   UNL     1      14.794   4.502  28.166  0.00  0.00    +0.000 C 
ATOM     18  O   UNL     1      15.921   4.877  27.714  0.00  0.00    +0.000 OA
ATOM     19  H   UNL     1      13.727   6.314  27.641  0.00  0.00    +0.000 HD
BRANCH  17  20
ATOM     20  C   UNL     1      14.650   3.131  28.807  0.00  0.00    +0.000 A 
ATOM     21  C   UNL     1      14.418   1.973  27.984  0.00  0.00    +0.000 A 
ATOM     22  C   UNL     1      14.322   2.112  26.553  0.00  0.00    +0.000 A 
ATOM     23  C   UNL     1      14.090   0.954  25.730  0.00  0.00    +0.000 A 
ATOM     24 CL   UNL     1      13.972   1.128  23.963  0.00  0.00    +0.000 Cl
ATOM     25  C   UNL     1      13.954  -0.344  26.337  0.00  0.00    +0.000 A 
ATOM     26  C   UNL     1      14.745   2.990  30.237  0.00  0.00    +0.000 A 
ENDBRANCH  17  20
ENDBRANCH  14  16
ENDBRANCH   1  14
TORSDOF 5
ENDMDL
MODEL 2
REMARK VINA RESULT:    -6.535      1.958      2.708
REMARK INTER + INTRA:          -9.783
REMARK INTER:                  -8.372
REMARK INTRA:                  -1.412
REMARK UNBOUND:                -1.339
REMARK  Name = 
REMARK  6 active torsions:
REMARK  status: ('A' for Active; 'I' for Inactive)
REMARK    1  A    between atoms: C_1  and  C_2
REMARK    2  A    between atoms: C_5  and  C_6
REMARK    3  A    between atoms: N_8  and  N_9
REMARK    4  A    between atoms: N_9  and  C_10
REMARK    5  A    between atoms: C_10  and  N_12
REMARK    6  A    between atoms: C_13  and  C_15
REMARK                            x       y       z     vdW  Elec       q    Type
REMARK                         _______ _______ _______ _____ _____    ______ ____
ROOT
ATOM      1  N   UNL     1      11.659   3.457  27.984  0.00  0.00    +0.000 N 
ATOM      2  H   UNL     1      11.877   2.501  27.702  0.00  0.00    +0.000 HD
ENDROOT
BRANCH   1   5
ATOM      3  C   UNL     1       9.559   3.356  26.627  0.00  0.00    +0.000 C 
ATOM      4  O   UNL     1       8.482   3.904  26.236  0.00  0.00    +0.000 OA
ATOM      5  N   UNL     1      10.455   4.070  27.548  0.00  0.00    +0.000 N 
ATOM      6  H   UNL     1      10.211   5.005  27.874  0.00  0.00    +0.000 HD
BRANCH   3  11
ATOM      7  C   UNL     1      11.727   1.489  22.201  0.00  0.00    +0.000 C 
ATOM      8  C   UNL     1      11.461   0.284  23.087  0.00  0.00    +0.000 A 
ATOM      9  C   UNL     1      10.863   0.462  24.385  0.00  0.00    +0.000 A 
ATOM     10  C   UNL     1      10.519   1.783  24.843  0.00  0.00    +0.000 A 
ATOM     11  C   UNL     1       9.922   1.962  26.142  0.00  0.00    +0.000 A 
ATOM     12  C   UNL     1       9.669   0.819  26.982  0.00  0.00    +0.000 A 
ATOM     13  C   UNL     1      11.805  -1.038  22.627  0.00  0.00    +0.000 A 
ENDBRANCH   3  11
ENDBRANCH   1   5
BRANCH   1  14
ATOM     14  C   UNL     1      12.592   4.200  28.844  0.00  0.00    +0.000 C 
ATOM     15  S   UNL     1      12.699   5.812  28.722  0.00  0.00    +0.000 S 
BRANCH  14  16
ATOM     16  N   UNL     1      13.431   3.479  29.812  0.00  0.00    +0.000 N 
ATOM     17  C   UNL     1      14.740   2.950  29.402  0.00  0.00    +0.000 C 
ATOM     18  O   UNL     1      15.464   2.326  30.239  0.00  0.00    +0.000 OA
ATOM     19  H   UNL     1      13.105   3.345  30.769  0.00  0.00    +0.000 HD
BRANCH  17  20
ATOM     20  C   UNL     1      15.226   3.149  27.975  0.00  0.00    +0.000 A 
ATOM     21  C   UNL     1      14.966   2.142  26.979  0.00  0.00    +0.000 A 
ATOM     22  C   UNL     1      14.246   0.947  27.334  0.00  0.00    +0.000 A 
ATOM     23  C   UNL     1      13.986  -0.061  26.338  0.00  0.00    +0.000 A 
ATOM     24 CL   UNL     1      13.096  -1.538  26.777  0.00  0.00    +0.000 Cl
ATOM     25  C   UNL     1      14.447   0.128  24.987  0.00  0.00    +0.000 A 
ATOM     26  C   UNL     1      15.947   4.344  27.620  0.00  0.00    +0.000 A 
ENDBRANCH  17  20
ENDBRANCH  14  16
ENDBRANCH   1  14
TORSDOF 5
ENDMDL
MODEL 3
REMARK VINA RESULT:    -6.449      1.868      4.837
REMARK INTER + INTRA:          -9.672
REMARK INTER:                  -8.571
REMARK INTRA:                  -1.101
REMARK UNBOUND:                -1.339
REMARK  Name = 
REMARK  6 active torsions:
REMARK  status: ('A' for Active; 'I' for Inactive)
REMARK    1  A    between atoms: C_1  and  C_2
REMARK    2  A    between atoms: C_5  and  C_6
REMARK    3  A    between atoms: N_8  and  N_9
REMARK    4  A    between atoms: N_9  and  C_10
REMARK    5  A    between atoms: C_10  and  N_12
REMARK    6  A    between atoms: C_13  and  C_15
REMARK                            x       y       z     vdW  Elec       q    Type
REMARK                         _______ _______ _______ _____ _____    ______ ____
ROOT
ATOM      1  N   UNL     1      13.463   5.170  29.054  0.00  0.00    +0.000 N 
ATOM      2  H   UNL     1      13.171   4.197  29.150  0.00  0.00    +0.000 HD
ENDROOT
BRANCH   1   5
ATOM      3  C   UNL     1      15.550   4.405  27.905  0.00  0.00    +0.000 C 
ATOM      4  O   UNL     1      16.656   4.684  27.346  0.00  0.00    +0.000 OA
ATOM      5  N   UNL     1      14.699   5.482  28.430  0.00  0.00    +0.000 N 
ATOM      6  H   UNL     1      14.997   6.454  28.345  0.00  0.00    +0.000 HD
BRANCH   3  11
ATOM      7  C   UNL     1      13.869   0.797  24.450  0.00  0.00    +0.000 C 
ATOM      8  C   UNL     1      13.861   0.121  25.811  0.00  0.00    +0.000 A 
ATOM      9  C   UNL     1      14.273   0.852  26.981  0.00  0.00    +0.000 A 
ATOM     10  C   UNL     1      14.693   2.224  26.860  0.00  0.00    +0.000 A 
ATOM     11  C   UNL     1      15.105   2.956  28.031  0.00  0.00    +0.000 A 
ATOM     12  C   UNL     1      15.097   2.316  29.321  0.00  0.00    +0.000 A 
ATOM     13  C   UNL     1      13.439  -1.252  25.931  0.00  0.00    +0.000 A 
ENDBRANCH   3  11
ENDBRANCH   1   5
BRANCH   1  14
ATOM     14  C   UNL     1      12.603   6.249  29.563  0.00  0.00    +0.000 C 
ATOM     15  S   UNL     1      12.931   6.943  30.990  0.00  0.00    +0.000 S 
BRANCH  14  16
ATOM     16  N   UNL     1      11.445   6.698  28.777  0.00  0.00    +0.000 N 
ATOM     17  C   UNL     1      10.226   5.878  28.731  0.00  0.00    +0.000 C 
ATOM     18  O   UNL     1       9.225   6.265  28.051  0.00  0.00    +0.000 OA
ATOM     19  H   UNL     1      11.487   7.578  28.263  0.00  0.00    +0.000 HD
BRANCH  17  20
ATOM     20  C   UNL     1      10.163   4.566  29.497  0.00  0.00    +0.000 A 
ATOM     21  C   UNL     1      10.271   3.315  28.792  0.00  0.00    +0.000 A 
ATOM     22  C   UNL     1      10.438   3.306  27.361  0.00  0.00    +0.000 A 
ATOM     23  C   UNL     1      10.546   2.055  26.656  0.00  0.00    +0.000 A 
ATOM     24 CL   UNL     1      10.753   2.045  24.889  0.00  0.00    +0.000 Cl
ATOM     25  C   UNL     1      10.487   0.813  27.382  0.00  0.00    +0.000 A 
ATOM     26  C   UNL     1       9.995   4.574  30.927  0.00  0.00    +0.000 A 
ENDBRANCH  17  20
ENDBRANCH  14  16
ENDBRANCH   1  14
TORSDOF 5
ENDMDL
MODEL 4
REMARK VINA RESULT:    -6.433      1.452      2.790
REMARK INTER + INTRA:          -9.652
REMARK INTER:                  -8.444
REMARK INTRA:                  -1.208
REMARK UNBOUND:                -1.339
REMARK  Name = 
REMARK  6 active torsions:
REMARK  status: ('A' for Active; 'I' for Inactive)
REMARK    1  A    between atoms: C_1  and  C_2
REMARK    2  A    between atoms: C_5  and  C_6
REMARK    3  A    between atoms: N_8  and  N_9
REMARK    4  A    between atoms: N_9  and  C_10
REMARK    5  A    between atoms: C_10  and  N_12
REMARK    6  A    between atoms: C_13  and  C_15
REMARK                            x       y       z     vdW  Elec       q    Type
REMARK                         _______ _______ _______ _____ _____    ______ ____
ROOT
ATOM      1  N   UNL     1      11.192   4.117  27.681  0.00  0.00    +0.000 N 
ATOM      2  H   UNL     1      11.737   3.403  27.196  0.00  0.00    +0.000 HD
ENDROOT
BRANCH   1   5
ATOM      3  C   UNL     1       9.118   3.273  26.563  0.00  0.00    +0.000 C 
ATOM      4  O   UNL     1       7.855   3.306  26.435  0.00  0.00    +0.000 OA
ATOM      5  N   UNL     1       9.781   4.153  27.538  0.00  0.00    +0.000 N 
ATOM      6  H   UNL     1       9.226   4.789  28.110  0.00  0.00    +0.000 HD
BRANCH   3  11
ATOM      7  C   UNL     1      10.547   3.244  21.491  0.00  0.00    +0.000 C 
ATOM      8  C   UNL     1      11.153   1.996  22.112  0.00  0.00    +0.000 A 
ATOM      9  C   UNL     1      10.942   1.711  23.508  0.00  0.00    +0.000 A 
ATOM     10  C   UNL     1      10.157   2.610  24.314  0.00  0.00    +0.000 A 
ATOM     11  C   UNL     1       9.946   2.325  25.711  0.00  0.00    +0.000 A 
ATOM     12  C   UNL     1      10.520   1.143  26.300  0.00  0.00    +0.000 A 
ATOM     13  C   UNL     1      11.937   1.097  21.304  0.00  0.00    +0.000 A 
ENDBRANCH   3  11
ENDBRANCH   1   5
BRANCH   1  14
ATOM     14  C   UNL     1      11.871   5.107  28.531  0.00  0.00    +0.000 C 
ATOM     15  S   UNL     1      11.175   5.609  29.905  0.00  0.00    +0.000 S 
BRANCH  14  16
ATOM     16  N   UNL     1      13.180   5.643  28.132  0.00  0.00    +0.000 N 
ATOM     17  C   UNL     1      14.401   4.864  28.385  0.00  0.00    +0.000 C 
ATOM     18  O   UNL     1      15.533   5.328  28.040  0.00  0.00    +0.000 OA
ATOM     19  H   UNL     1      13.242   6.555  27.679  0.00  0.00    +0.000 HD
BRANCH  17  20
ATOM     20  C   UNL     1      14.309   3.505  29.059  0.00  0.00    +0.000 A 
ATOM     21  C   UNL     1      14.277   2.307  28.261  0.00  0.00    +0.000 A 
ATOM     22  C   UNL     1      14.331   2.395  26.825  0.00  0.00    +0.000 A 
ATOM     23  C   UNL     1      14.299   1.197  26.027  0.00  0.00    +0.000 A 
ATOM     24 CL   UNL     1      14.366   1.308  24.252  0.00  0.00    +0.000 Cl
ATOM     25  C   UNL     1      14.212  -0.090  26.666  0.00  0.00    +0.000 A 
ATOM     26  C   UNL     1      14.254   3.416  30.495  0.00  0.00    +0.000 A 
ENDBRANCH  17  20
ENDBRANCH  14  16
ENDBRANCH   1  14
TORSDOF 5
ENDMDL
MODEL 5
REMARK VINA RESULT:    -6.207      3.307      7.265
REMARK INTER + INTRA:          -9.360
REMARK INTER:                  -8.008
REMARK INTRA:                  -1.352
REMARK UNBOUND:                -1.339
REMARK  Name = 
REMARK  6 active torsions:
REMARK  status: ('A' for Active; 'I' for Inactive)
REMARK    1  A    between atoms: C_1  and  C_2
REMARK    2  A    between atoms: C_5  and  C_6
REMARK    3  A    between atoms: N_8  and  N_9
REMARK    4  A    between atoms: N_9  and  C_10
REMARK    5  A    between atoms: C_10  and  N_12
REMARK    6  A    between atoms: C_13  and  C_15
REMARK                            x       y       z     vdW  Elec       q    Type
REMARK                         _______ _______ _______ _____ _____    ______ ____
ROOT
ATOM      1  N   UNL     1      13.293   2.471  27.336  0.00  0.00    +0.000 N 
ATOM      2  H   UNL     1      12.801   2.962  28.083  0.00  0.00    +0.000 HD
ENDROOT
BRANCH   1   5
ATOM      3  C   UNL     1      15.414   3.642  27.966  0.00  0.00    +0.000 C 
ATOM      4  O   UNL     1      16.622   3.933  27.703  0.00  0.00    +0.000 OA
ATOM      5  N   UNL     1      14.643   2.796  27.042  0.00  0.00    +0.000 N 
ATOM      6  H   UNL     1      15.080   2.443  26.191  0.00  0.00    +0.000 HD
BRANCH   3  11
ATOM      7  C   UNL     1      14.012   8.446  29.619  0.00  0.00    +0.000 C 
ATOM      8  C   UNL     1      13.632   7.485  30.732  0.00  0.00    +0.000 A 
ATOM      9  C   UNL     1      13.890   6.075  30.585  0.00  0.00    +0.000 A 
ATOM     10  C   UNL     1      14.506   5.578  29.382  0.00  0.00    +0.000 A 
ATOM     11  C   UNL     1      14.763   4.168  29.236  0.00  0.00    +0.000 A 
ATOM     12  C   UNL     1      14.404   3.256  30.291  0.00  0.00    +0.000 A 
ATOM     13  C   UNL     1      13.016   7.983  31.936  0.00  0.00    +0.000 A 
ENDBRANCH   3  11
ENDBRANCH   1   5
BRANCH   1  14
ATOM     14  C   UNL     1      12.604   1.427  26.564  0.00  0.00    +0.000 C 
ATOM     15  S   UNL     1      13.055   1.114  25.040  0.00  0.00    +0.000 S 
BRANCH  14  16
ATOM     16  N   UNL     1      11.504   0.667  27.176  0.00  0.00    +0.000 N 
ATOM     17  C   UNL     1      10.174   1.277  27.309  0.00  0.00    +0.000 C 
ATOM     18  O   UNL     1       9.223   0.620  27.839  0.00  0.00    +0.000 OA
ATOM     19  H   UNL     1      11.664  -0.284  27.508  0.00  0.00    +0.000 HD
BRANCH  17  20
ATOM     20  C   UNL     1       9.935   2.695  26.814  0.00  0.00    +0.000 A 
ATOM     21  C   UNL     1      10.065   3.805  27.722  0.00  0.00    +0.000 A 
ATOM     22  C   UNL     1      10.421   3.574  29.098  0.00  0.00    +0.000 A 
ATOM     23  C   UNL     1      10.551   4.684  30.005  0.00  0.00    +0.000 A 
ATOM     24 CL   UNL     1      10.991   4.397  31.706  0.00  0.00    +0.000 Cl
ATOM     25  C   UNL     1      10.325   6.027  29.536  0.00  0.00    +0.000 A 
ATOM     26  C   UNL     1       9.579   2.927  25.439  0.00  0.00    +0.000 A 
ENDBRANCH  17  20
ENDBRANCH  14  16
ENDBRANCH   1  14
TORSDOF 5
ENDMDL
MODEL 6
REMARK VINA RESULT:    -6.165     20.442     22.596
REMARK INTER + INTRA:          -9.306
REMARK INTER:                  -7.680
REMARK INTRA:                  -1.626
REMARK UNBOUND:                -1.339
REMARK  Name = 
REMARK  6 active torsions:
REMARK  status: ('A' for Active; 'I' for Inactive)
REMARK    1  A    between atoms: C_1  and  C_2
REMARK    2  A    between atoms: C_5  and  C_6
REMARK    3  A    between atoms: N_8  and  N_9
REMARK    4  A    between atoms: N_9  and  C_10
REMARK    5  A    between atoms: C_10  and  N_12
REMARK    6  A    between atoms: C_13  and  C_15
REMARK                            x       y       z     vdW  Elec       q    Type
REMARK                         _______ _______ _______ _____ _____    ______ ____
ROOT
ATOM      1  N   UNL     1      30.107  -7.096  26.437  0.00  0.00    +0.000 N 
ATOM      2  H   UNL     1      31.039  -7.072  26.021  0.00  0.00    +0.000 HD
ENDROOT
BRANCH   1   5
ATOM      3  C   UNL     1      28.980  -7.815  24.321  0.00  0.00    +0.000 C 
ATOM      4  O   UNL     1      27.951  -7.818  23.577  0.00  0.00    +0.000 OA
ATOM      5  N   UNL     1      28.957  -7.099  25.605  0.00  0.00    +0.000 N 
ATOM      6  H   UNL     1      28.114  -6.605  25.898  0.00  0.00    +0.000 HD
BRANCH   3  11
ATOM      7  C   UNL     1      32.974  -6.615  21.098  0.00  0.00    +0.000 C 
ATOM      8  C   UNL     1      33.262  -8.008  21.634  0.00  0.00    +0.000 A 
ATOM      9  C   UNL     1      32.344  -8.630  22.554  0.00  0.00    +0.000 A 
ATOM     10  C   UNL     1      31.154  -7.930  22.966  0.00  0.00    +0.000 A 
ATOM     11  C   UNL     1      30.237  -8.552  23.885  0.00  0.00    +0.000 A 
ATOM     12  C   UNL     1      30.509  -9.872  24.393  0.00  0.00    +0.000 A 
ATOM     13  C   UNL     1      34.452  -8.707  21.221  0.00  0.00    +0.000 A 
ENDBRANCH   3  11
ENDBRANCH   1   5
BRANCH   1  14
ATOM     14  C   UNL     1      29.957  -7.129  27.899  0.00  0.00    +0.000 C 
ATOM     15  S   UNL     1      28.537  -7.547  28.560  0.00  0.00    +0.000 S 
BRANCH  14  16
ATOM     16  N   UNL     1      31.095  -6.781  28.763  0.00  0.00    +0.000 N 
ATOM     17  C   UNL     1      32.085  -7.806  29.122  0.00  0.00    +0.000 C 
ATOM     18  O   UNL     1      33.068  -7.506  29.869  0.00  0.00    +0.000 OA
ATOM     19  H   UNL     1      31.198  -5.828  29.112  0.00  0.00    +0.000 HD
BRANCH  17  20
ATOM     20  C   UNL     1      31.932  -9.227  28.601  0.00  0.00    +0.000 A 
ATOM     21  C   UNL     1      32.650  -9.642  27.425  0.00  0.00    +0.000 A 
ATOM     22  C   UNL     1      33.514  -8.714  26.741  0.00  0.00    +0.000 A 
ATOM     23  C   UNL     1      34.232  -9.130  25.565  0.00  0.00    +0.000 A 
ATOM     24 CL   UNL     1      35.299  -7.982  24.721  0.00  0.00    +0.000 Cl
ATOM     25  C   UNL     1      34.087 -10.475  25.071  0.00  0.00    +0.000 A 
ATOM     26  C   UNL     1      31.068 -10.155  29.284  0.00  0.00    +0.000 A 
ENDBRANCH  17  20
ENDBRANCH  14  16
ENDBRANCH   1  14
TORSDOF 5
ENDMDL
MODEL 7
REMARK VINA RESULT:    -6.152      3.685      5.973
REMARK INTER + INTRA:          -9.289
REMARK INTER:                  -8.073
REMARK INTRA:                  -1.217
REMARK UNBOUND:                -1.339
REMARK  Name = 
REMARK  6 active torsions:
REMARK  status: ('A' for Active; 'I' for Inactive)
REMARK    1  A    between atoms: C_1  and  C_2
REMARK    2  A    between atoms: C_5  and  C_6
REMARK    3  A    between atoms: N_8  and  N_9
REMARK    4  A    between atoms: N_9  and  C_10
REMARK    5  A    between atoms: C_10  and  N_12
REMARK    6  A    between atoms: C_13  and  C_15
REMARK                            x       y       z     vdW  Elec       q    Type
REMARK                         _______ _______ _______ _____ _____    ______ ____
ROOT
ATOM      1  N   UNL     1      10.137   2.102  24.792  0.00  0.00    +0.000 N 
ATOM      2  H   UNL     1      10.427   2.977  25.230  0.00  0.00    +0.000 HD
ENDROOT
BRANCH   1   5
ATOM      3  C   UNL     1      10.316   0.955  27.009  0.00  0.00    +0.000 C 
ATOM      4  O   UNL     1      10.162  -0.089  27.716  0.00  0.00    +0.000 OA
ATOM      5  N   UNL     1       9.965   0.935  25.581  0.00  0.00    +0.000 N 
ATOM      6  H   UNL     1       9.597   0.083  25.159  0.00  0.00    +0.000 HD
BRANCH   3  11
ATOM      7  C   UNL     1      15.161   2.956  27.548  0.00  0.00    +0.000 C 
ATOM      8  C   UNL     1      14.214   3.952  28.197  0.00  0.00    +0.000 A 
ATOM      9  C   UNL     1      12.798   3.691  28.216  0.00  0.00    +0.000 A 
ATOM     10  C   UNL     1      12.280   2.487  27.620  0.00  0.00    +0.000 A 
ATOM     11  C   UNL     1      10.864   2.226  27.639  0.00  0.00    +0.000 A 
ATOM     12  C   UNL     1       9.965   3.169  28.254  0.00  0.00    +0.000 A 
ATOM     13  C   UNL     1      14.733   5.156  28.794  0.00  0.00    +0.000 A 
ENDBRANCH   3  11
ENDBRANCH   1   5
BRANCH   1  14
ATOM     14  C   UNL     1       9.896   2.051  23.342  0.00  0.00    +0.000 C 
ATOM     15  S   UNL     1       9.748   3.425  22.496  0.00  0.00    +0.000 S 
BRANCH  14  16
ATOM     16  N   UNL     1       9.789   0.753  22.661  0.00  0.00    +0.000 N 
ATOM     17  C   UNL     1      10.997   0.090  22.148  0.00  0.00    +0.000 C 
ATOM     18  O   UNL     1      10.904  -1.032  21.558  0.00  0.00    +0.000 OA
ATOM     19  H   UNL     1       8.877   0.312  22.543  0.00  0.00    +0.000 HD
BRANCH  17  20
ATOM     20  C   UNL     1      12.357   0.747  22.323  0.00  0.00    +0.000 A 
ATOM     21  C   UNL     1      13.166   0.432  23.472  0.00  0.00    +0.000 A 
ATOM     22  C   UNL     1      12.687  -0.505  24.455  0.00  0.00    +0.000 A 
ATOM     23  C   UNL     1      13.496  -0.820  25.604  0.00  0.00    +0.000 A 
ATOM     24 CL   UNL     1      12.904  -1.979  26.818  0.00  0.00    +0.000 Cl
ATOM     25  C   UNL     1      14.784  -0.198  25.769  0.00  0.00    +0.000 A 
ATOM     26  C   UNL     1      12.835   1.685  21.340  0.00  0.00    +0.000 A 
ENDBRANCH  17  20
ENDBRANCH  14  16
ENDBRANCH   1  14
TORSDOF 5
ENDMDL
MODEL 8
REMARK VINA RESULT:    -6.145     18.358     20.743
REMARK INTER + INTRA:          -9.280
REMARK INTER:                  -7.895
REMARK INTRA:                  -1.385
REMARK UNBOUND:                -1.339
REMARK  Name = 
REMARK  6 active torsions:
REMARK  status: ('A' for Active; 'I' for Inactive)
REMARK    1  A    between atoms: C_1  and  C_2
REMARK    2  A    between atoms: C_5  and  C_6
REMARK    3  A    between atoms: N_8  and  N_9
REMARK    4  A    between atoms: N_9  and  C_10
REMARK    5  A    between atoms: C_10  and  N_12
REMARK    6  A    between atoms: C_13  and  C_15
REMARK                            x       y       z     vdW  Elec       q    Type
REMARK                         _______ _______ _______ _____ _____    ______ ____
ROOT
ATOM      1  N   UNL     1      28.418  -9.250  31.120  0.00  0.00    +0.000 N 
ATOM      2  H   UNL     1      28.330  -9.476  30.128  0.00  0.00    +0.000 HD
ENDROOT
BRANCH   1   5
ATOM      3  C   UNL     1      30.884  -8.870  30.924  0.00  0.00    +0.000 C 
ATOM      4  O   UNL     1      32.031  -8.835  31.468  0.00  0.00    +0.000 OA
ATOM      5  N   UNL     1      29.700  -9.211  31.727  0.00  0.00    +0.000 N 
ATOM      6  H   UNL     1      29.801  -9.418  32.721  0.00  0.00    +0.000 HD
BRANCH   3  11
ATOM      7  C   UNL     1      31.849 -11.597  26.519  0.00  0.00    +0.000 C 
ATOM      8  C   UNL     1      31.316 -10.245  26.075  0.00  0.00    +0.000 A 
ATOM      9  C   UNL     1      30.954  -9.256  27.058  0.00  0.00    +0.000 A 
ATOM     10  C   UNL     1      31.096  -9.550  28.461  0.00  0.00    +0.000 A 
ATOM     11  C   UNL     1      30.734  -8.561  29.443  0.00  0.00    +0.000 A 
ATOM     12  C   UNL     1      30.229  -7.279  29.024  0.00  0.00    +0.000 A 
ATOM     13  C   UNL     1      31.174  -9.951  24.672  0.00  0.00    +0.000 A 
ENDBRANCH   3  11
ENDBRANCH   1   5
BRANCH   1  14
ATOM     14  C   UNL     1      27.217  -8.965  31.918  0.00  0.00    +0.000 C 
ATOM     15  S   UNL     1      26.988  -9.718  33.335  0.00  0.00    +0.000 S 
BRANCH  14  16
ATOM     16  N   UNL     1      26.223  -7.998  31.430  0.00  0.00    +0.000 N 
ATOM     17  C   UNL     1      25.337  -8.355  30.313  0.00  0.00    +0.000 C 
ATOM     18  O   UNL     1      24.478  -7.519  29.891  0.00  0.00    +0.000 OA
ATOM     19  H   UNL     1      26.148  -7.079  31.867  0.00  0.00    +0.000 HD
BRANCH  17  20
ATOM     20  C   UNL     1      25.448  -9.725  29.662  0.00  0.00    +0.000 A 
ATOM     21  C   UNL     1      26.150  -9.873  28.414  0.00  0.00    +0.000 A 
ATOM     22  C   UNL     1      26.746  -8.725  27.781  0.00  0.00    +0.000 A 
ATOM     23  C   UNL     1      27.448  -8.874  26.532  0.00  0.00    +0.000 A 
ATOM     24 CL   UNL     1      28.184  -7.454  25.751  0.00  0.00    +0.000 Cl
ATOM     25  C   UNL     1      27.553 -10.171  25.916  0.00  0.00    +0.000 A 
ATOM     26  C   UNL     1      24.852 -10.873  30.294  0.00  0.00    +0.000 A 
ENDBRANCH  17  20
ENDBRANCH  14  16
ENDBRANCH   1  14
TORSDOF 5
ENDMDL
MODEL 9
REMARK VINA RESULT:    -6.042     31.024     33.947
REMARK INTER + INTRA:          -9.146
REMARK INTER:                  -7.426
REMARK INTRA:                  -1.720
REMARK UNBOUND:                -1.339
REMARK  Name = 
REMARK  6 active torsions:
REMARK  status: ('A' for Active; 'I' for Inactive)
REMARK    1  A    between atoms: C_1  and  C_2
REMARK    2  A    between atoms: C_5  and  C_6
REMARK    3  A    between atoms: N_8  and  N_9
REMARK    4  A    between atoms: N_9  and  C_10
REMARK    5  A    between atoms: C_10  and  N_12
REMARK    6  A    between atoms: C_13  and  C_15
REMARK                            x       y       z     vdW  Elec       q    Type
REMARK                         _______ _______ _______ _____ _____    ______ ____
ROOT
ATOM      1  N   UNL     1      38.545  12.469  41.686  0.00  0.00    +0.000 N 
ATOM      2  H   UNL     1      38.814  11.552  41.327  0.00  0.00    +0.000 HD
ENDROOT
BRANCH   1   5
ATOM      3  C   UNL     1      40.569  13.939  41.616  0.00  0.00    +0.000 C 
ATOM      4  O   UNL     1      41.147  14.985  41.185  0.00  0.00    +0.000 OA
ATOM      5  N   UNL     1      39.190  13.637  41.205  0.00  0.00    +0.000 N 
ATOM      6  H   UNL     1      38.698  14.269  40.572  0.00  0.00    +0.000 HD
BRANCH   3  11
ATOM      7  C   UNL     1      40.941  13.596  46.862  0.00  0.00    +0.000 C 
ATOM      8  C   UNL     1      41.786  12.465  46.300  0.00  0.00    +0.000 A 
ATOM      9  C   UNL     1      41.893  12.285  44.875  0.00  0.00    +0.000 A 
ATOM     10  C   UNL     1      41.197  13.177  43.983  0.00  0.00    +0.000 A 
ATOM     11  C   UNL     1      41.303  12.998  42.558  0.00  0.00    +0.000 A 
ATOM     12  C   UNL     1      42.104  11.926  42.025  0.00  0.00    +0.000 A 
ATOM     13  C   UNL     1      42.482  11.573  47.192  0.00  0.00    +0.000 A 
ENDBRANCH   3  11
ENDBRANCH   1   5
BRANCH   1  14
ATOM     14  C   UNL     1      37.488  12.578  42.703  0.00  0.00    +0.000 C 
ATOM     15  S   UNL     1      37.403  13.893  43.646  0.00  0.00    +0.000 S 
BRANCH  14  16
ATOM     16  N   UNL     1      36.509  11.493  42.863  0.00  0.00    +0.000 N 
ATOM     17  C   UNL     1      36.776  10.395  43.803  0.00  0.00    +0.000 C 
ATOM     18  O   UNL     1      35.929   9.457  43.942  0.00  0.00    +0.000 OA
ATOM     19  H   UNL     1      35.644  11.503  42.323  0.00  0.00    +0.000 HD
BRANCH  17  20
ATOM     20  C   UNL     1      38.065  10.381  44.609  0.00  0.00    +0.000 A 
ATOM     21  C   UNL     1      38.106  10.995  45.911  0.00  0.00    +0.000 A 
ATOM     22  C   UNL     1      36.927  11.622  46.450  0.00  0.00    +0.000 A 
ATOM     23  C   UNL     1      36.968  12.236  47.752  0.00  0.00    +0.000 A 
ATOM     24 CL   UNL     1      35.511  13.011  48.417  0.00  0.00    +0.000 Cl
ATOM     25  C   UNL     1      38.189  12.223  48.515  0.00  0.00    +0.000 A 
ATOM     26  C   UNL     1      39.244   9.755  44.070  0.00  0.00    +0.000 A 
ENDBRANCH  17  20
ENDBRANCH  14  16
ENDBRANCH   1  14
TORSDOF 5
ENDMDL
MODEL 10
REMARK VINA RESULT:    -6.014     19.411     21.185
REMARK INTER + INTRA:          -9.110
REMARK INTER:                  -7.486
REMARK INTRA:                  -1.624
REMARK UNBOUND:                -1.339
REMARK  Name = 
REMARK  6 active torsions:
REMARK  status: ('A' for Active; 'I' for Inactive)
REMARK    1  A    between atoms: C_1  and  C_2
REMARK    2  A    between atoms: C_5  and  C_6
REMARK    3  A    between atoms: N_8  and  N_9
REMARK    4  A    between atoms: N_9  and  C_10
REMARK    5  A    between atoms: C_10  and  N_12
REMARK    6  A    between atoms: C_13  and  C_15
REMARK                            x       y       z     vdW  Elec       q    Type
REMARK                         _______ _______ _______ _____ _____    ______ ____
ROOT
ATOM      1  N   UNL     1      29.763  -8.886  31.442  0.00  0.00    +0.000 N 
ATOM      2  H   UNL     1      29.515  -7.898  31.513  0.00  0.00    +0.000 HD
ENDROOT
BRANCH   1   5
ATOM      3  C   UNL     1      27.625 -10.126  31.837  0.00  0.00    +0.000 C 
ATOM      4  O   UNL     1      26.970 -10.994  32.492  0.00  0.00    +0.000 OA
ATOM      5  N   UNL     1      29.031  -9.856  32.174  0.00  0.00    +0.000 N 
ATOM      6  H   UNL     1      29.479 -10.368  32.934  0.00  0.00    +0.000 HD
BRANCH   3  11
ATOM      7  C   UNL     1      27.844 -10.482  26.583  0.00  0.00    +0.000 C 
ATOM      8  C   UNL     1      26.881  -9.348  26.894  0.00  0.00    +0.000 A 
ATOM      9  C   UNL     1      26.602  -8.995  28.262  0.00  0.00    +0.000 A 
ATOM     10  C   UNL     1      27.236  -9.717  29.335  0.00  0.00    +0.000 A 
ATOM     11  C   UNL     1      26.957  -9.364  30.703  0.00  0.00    +0.000 A 
ATOM     12  C   UNL     1      26.045  -8.289  30.998  0.00  0.00    +0.000 A 
ATOM     13  C   UNL     1      26.248  -8.626  25.820  0.00  0.00    +0.000 A 
ENDBRANCH   3  11
ENDBRANCH   1   5
BRANCH   1  14
ATOM     14  C   UNL     1      30.879  -9.303  30.580  0.00  0.00    +0.000 C 
ATOM     15  S   UNL     1      30.896 -10.791  29.938  0.00  0.00    +0.000 S 
BRANCH  14  16
ATOM     16  N   UNL     1      31.980  -8.369  30.302  0.00  0.00    +0.000 N 
ATOM     17  C   UNL     1      31.933  -7.512  29.109  0.00  0.00    +0.000 C 
ATOM     18  O   UNL     1      32.885  -6.705  28.868  0.00  0.00    +0.000 OA
ATOM     19  H   UNL     1      32.777  -8.317  30.936  0.00  0.00    +0.000 HD
BRANCH  17  20
ATOM     20  C   UNL     1      30.744  -7.590  28.163  0.00  0.00    +0.000 A 
ATOM     21  C   UNL     1      30.826  -8.392  26.970  0.00  0.00    +0.000 A 
ATOM     22  C   UNL     1      32.032  -9.120  26.672  0.00  0.00    +0.000 A 
ATOM     23  C   UNL     1      32.113  -9.923  25.479  0.00  0.00    +0.000 A 
ATOM     24 CL   UNL     1      33.604 -10.822  25.112  0.00  0.00    +0.000 Cl
ATOM     25  C   UNL     1      30.987  -9.997  24.584  0.00  0.00    +0.000 A 
ATOM     26  C   UNL     1      29.539  -6.861  28.461  0.00  0.00    +0.000 A 
ENDBRANCH  17  20
ENDBRANCH  14  16
ENDBRANCH   1  14
TORSDOF 5
ENDMDL
