REMARK  Name = 
REMARK  9 active torsions:
REMARK  status: ('A' for Active; 'I' for Inactive)
REMARK    1  A    between atoms: C_1  and  N_2
REMARK    2  A    between atoms: N_2  and  C_3
REMARK    3  A    between atoms: N_2  and  C_4
REMARK    4  A    between atoms: C_5  and  C_6
REMARK    5  A    between atoms: C_5  and  C_18
REMARK    6  A    between atoms: N_7  and  O_8
REMARK    7  A    between atoms: O_8  and  C_9
REMARK    8  A    between atoms: C_9  and  C_10
REMARK    9  A    between atoms: N_20  and  C_21
REMARK                            x       y       z     vdW  Elec       q    Type
REMARK                         _______ _______ _______ _____ _____    ______ ____
ROOT
ATOM      1  C   UNL     1       0.868   2.616   0.051  0.00  0.00    +0.000 C 
ATOM      2  C   UNL     1       1.650   2.607   1.164  0.00  0.00    +0.000 C 
ENDROOT
BRANCH   2   3
ATOM      3  C   UNL     1       2.018   3.915   1.846  0.00  0.00    +0.000 C 
ATOM      4  O   UNL     1       1.594   5.017   1.376  0.00  0.00    +0.000 OA
ATOM      5  N   UNL     1       2.863   3.905   3.049  0.00  0.00    +0.000 N 
ATOM      6  H   UNL     1       3.109   4.783   3.506  0.00  0.00    +0.000 HD
BRANCH   5   7
ATOM      7  C   UNL     1       3.353   2.630   3.592  0.00  0.00    +0.000 A 
ATOM      8  C   UNL     1       3.005   1.391   2.946  0.00  0.00    +0.000 A 
ATOM      9  C   UNL     1       2.177   1.401   1.768  0.00  0.00    +0.000 A 
ATOM     10  C   UNL     1       1.829   0.161   1.122  0.00  0.00    +0.000 A 
ATOM     11 CL   UNL     1       0.806   0.173  -0.334  0.00  0.00    +0.000 Cl
ATOM     12  C   UNL     1       2.309  -1.088   1.655  0.00  0.00    +0.000 A 
ATOM     13 CL   UNL     1       1.879  -2.620   0.856  0.00  0.00    +0.000 Cl
ATOM     14  C   UNL     1       4.181   2.620   4.771  0.00  0.00    +0.000 A 
ENDBRANCH   5   7
ENDBRANCH   2   3
BRANCH   1  16
ATOM     15  C   UNL     1       1.003   0.076  -0.064  0.00  0.00    +0.000 C 
ATOM     16  N   UNL     1       0.513   1.351  -0.608  0.00  0.00    +0.000 N 
ATOM     17  C   UNL     1      -0.332   1.361  -1.811  0.00  0.00    +0.000 C 
ENDBRANCH   1  16
BRANCH   2  18
ATOM     18  C   UNL     1       2.157   1.289   1.726  0.00  0.00    +0.000 C 
ATOM     19  N   UNL     1       2.913   1.280   2.803  0.00  0.00    +0.000 NA
BRANCH  19  20
ATOM     20  O   UNL     1       3.370   0.092   3.309  0.00  0.00    +0.000 OA
BRANCH  20  21
ATOM     21  C   UNL     1       4.186   0.082   4.471  0.00  0.00    +0.000 C 
BRANCH  21  22
ATOM     22  C   UNL     1       5.453   0.880   4.207  0.00  0.00    +0.000 A 
ATOM     23  C   UNL     1       6.347   0.482   3.150  0.00  0.00    +0.000 A 
ATOM     24  C   UNL     1       6.041  -0.671   2.344  0.00  0.00    +0.000 A 
ATOM     25  C   UNL     1       6.935  -1.069   1.287  0.00  0.00    +0.000 A 
ATOM     26 CL   UNL     1       6.557  -2.494   0.290  0.00  0.00    +0.000 Cl
ATOM     27  C   UNL     1       8.135  -0.313   1.037  0.00  0.00    +0.000 A 
ATOM     28  C   UNL     1       5.759   2.033   5.013  0.00  0.00    +0.000 A 
ATOM     29 CL   UNL     1       4.654   2.524   6.319  0.00  0.00    +0.000 Cl
ENDBRANCH  21  22
ENDBRANCH  20  21
ENDBRANCH  19  20
ENDBRANCH   2  18
TORSDOF 7
