REMARK  Name = 
REMARK  6 active torsions:
REMARK  status: ('A' for Active; 'I' for Inactive)
REMARK    1  A    between atoms: C_1  and  C_2
REMARK    2  A    between atoms: C_4  and  C_5
REMARK    3  A    between atoms: N_9  and  C_10
REMARK    4  A    between atoms: C_10  and  C_11
REMARK    5  A    between atoms: C_16  and  C_17
REMARK    6  A    between atoms: C_17  and  C_18
REMARK                            x       y       z     vdW  Elec       q    Type
REMARK                         _______ _______ _______ _____ _____    ______ ____
ROOT
ATOM      1  C   UNL     1       4.396   2.603  -1.459  0.00  0.00    +0.000 C 
ATOM      2  O   UNL     1       4.666   3.844  -1.407  0.00  0.00    +0.000 OA
ATOM      3  N   UNL     1       5.309   1.626  -0.847  0.00  0.00    +0.000 N 
ATOM      4  C   UNL     1       6.534   2.085  -0.176  0.00  0.00    +0.000 C 
ATOM      5  C   UNL     1       7.408   2.831  -1.171  0.00  0.00    +0.000 C 
ATOM      6  C   UNL     1       6.648   4.030  -1.713  0.00  0.00    +0.000 C 
ATOM      7  C   UNL     1       7.521   4.776  -2.709  0.00  0.00    +0.000 C 
ATOM      8  C   UNL     1       4.996   0.191  -0.907  0.00  0.00    +0.000 C 
ENDROOT
BRANCH   1   9
ATOM      9  C   UNL     1       3.129   2.129  -2.153  0.00  0.00    +0.000 C 
BRANCH   9  18
ATOM     10  C   UNL     1       1.043  -0.085  -0.031  0.00  0.00    +0.000 C 
ATOM     11  C   UNL     1       0.536  -1.518  -0.041  0.00  0.00    +0.000 A 
ATOM     12  C   UNL     1       0.884  -2.397  -1.128  0.00  0.00    +0.000 A 
ATOM     13  C   UNL     1       1.712  -1.918  -2.204  0.00  0.00    +0.000 A 
ATOM     14  C   UNL     1       2.079  -2.845  -3.351  0.00  0.00    +0.000 C 
ATOM     15  C   UNL     1       2.192  -0.560  -2.195  0.00  0.00    +0.000 A 
ATOM     16  C   UNL     1       3.020  -0.081  -3.271  0.00  0.00    +0.000 A 
ATOM     17  O   UNL     1       3.327  -0.857  -4.230  0.00  0.00    +0.000 OA
ATOM     18  N   UNL     1       3.485   1.232  -3.262  0.00  0.00    +0.000 N 
ATOM     19  S   UNL     1       4.443   1.787  -4.508  0.00  0.00    +0.000 S 
ATOM     20  C   UNL     1       1.844   0.319  -1.108  0.00  0.00    +0.000 A 
ATOM     21  N   UNL     1      -0.264  -1.981   1.000  0.00  0.00    +0.000 NA
ENDBRANCH   9  18
ENDBRANCH   1   9
BRANCH   6  22
ATOM     22  C   UNL     1       6.280   4.958  -0.567  0.00  0.00    +0.000 C 
BRANCH  22  23
ATOM     23  C   UNL     1       7.547   5.432   0.127  0.00  0.00    +0.000 A 
ATOM     24  C   UNL     1       8.441   4.475   0.726  0.00  0.00    +0.000 A 
ATOM     25  C   UNL     1       8.135   3.069   0.668  0.00  0.00    +0.000 A 
ATOM     26  C   UNL     1       9.029   2.112   1.267  0.00  0.00    +0.000 A 
ATOM     27  C   UNL     1       8.723   0.706   1.209  0.00  0.00    +0.000 A 
ATOM     28  C   UNL     1       7.853   6.838   0.185  0.00  0.00    +0.000 A 
ENDBRANCH  22  23
ENDBRANCH   6  22
TORSDOF 4
