REMARK  Name = 
REMARK  14 active torsions:
REMARK  status: ('A' for Active; 'I' for Inactive)
REMARK    1  A    between atoms: C_1  and  C_2
REMARK    2  A    between atoms: C_2  and  C_3
REMARK    3  A    between atoms: C_3  and  C_4
REMARK    4  A    between atoms: C_4  and  C_5
REMARK    5  A    between atoms: C_5  and  C_6
REMARK    6  A    between atoms: C_6  and  C_7
REMARK    7  A    between atoms: C_7  and  N_8
REMARK    8  A    between atoms: C_9  and  O_11
REMARK    9  A    between atoms: O_11  and  C_12
REMARK   10  A    between atoms: C_16  and  C_17
REMARK   11  A    between atoms: C_17  and  N_18
REMARK   12  A    between atoms: C_20  and  C_21
REMARK   13  A    between atoms: C_21  and  O_22
REMARK   14  A    between atoms: O_22  and  C_23
REMARK                            x       y       z     vdW  Elec       q    Type
REMARK                         _______ _______ _______ _____ _____    ______ ____
ROOT
ATOM      1  C   UNL     1      -2.467   1.514  -9.309  0.00  0.00    +0.000 C 
ENDROOT
BRANCH   1   6
ATOM      2  C   UNL     1      -3.605  -3.406  -8.006  0.00  0.00    +0.000 A 
ATOM      3  C   UNL     1      -3.953  -2.582  -9.135  0.00  0.00    +0.000 A 
ATOM      4  C   UNL     1      -3.473  -1.227  -9.212  0.00  0.00    +0.000 A 
ATOM      5  C   UNL     1      -3.821  -0.403 -10.341  0.00  0.00    +0.000 A 
ATOM      6  C   UNL     1      -3.341   0.953 -10.419  0.00  0.00    +0.000 A 
ATOM      7  C   UNL     1      -4.085  -4.762  -7.928  0.00  0.00    +0.000 A 
BRANCH   2   8
ATOM      8  O   UNL     1      -2.789  -2.882  -6.969  0.00  0.00    +0.000 OA
BRANCH   8  10
ATOM      9  N   UNL     1      -1.600  -3.151  -4.783  0.00  0.00    +0.000 N 
ATOM     10  C   UNL     1      -2.446  -3.694  -5.856  0.00  0.00    +0.000 C 
ATOM     11  O   UNL     1      -2.869  -4.890  -5.788  0.00  0.00    +0.000 OA
ATOM     12  H   UNL     1      -1.354  -3.734  -3.983  0.00  0.00    +0.000 HD
BRANCH   9  13
ATOM     13  C   UNL     1      -1.110  -1.767  -4.862  0.00  0.00    +0.000 C 
BRANCH  13  14
ATOM     14  C   UNL     1      -1.617  -0.981  -3.664  0.00  0.00    +0.000 C 
BRANCH  14  15
ATOM     15  C   UNL     1      -1.110  -1.626  -2.384  0.00  0.00    +0.000 C 
BRANCH  15  16
ATOM     16  C   UNL     1       0.410  -1.626  -2.384  0.00  0.00    +0.000 C 
BRANCH  16  17
ATOM     17  C   UNL     1       0.916  -0.195  -2.465  0.00  0.00    +0.000 C 
BRANCH  17  19
ATOM     18  C   UNL     1       0.916  -0.053   0.013  0.00  0.00    +0.000 C 
ATOM     19  C   UNL     1       0.410   0.591  -1.267  0.00  0.00    +0.000 C 
ENDBRANCH  17  19
ENDBRANCH  16  17
ENDBRANCH  15  16
ENDBRANCH  14  15
ENDBRANCH  13  14
ENDBRANCH   9  13
ENDBRANCH   8  10
ENDBRANCH   2   8
ENDBRANCH   1   6
BRANCH   1  20
ATOM     20  N   UNL     1      -3.202   1.470  -8.037  0.00  0.00    +0.000 N 
ATOM     21  C   UNL     1      -4.403   2.162  -7.902  0.00  0.00    +0.000 A 
ATOM     22  C   UNL     1      -4.925   2.921  -9.009  0.00  0.00    +0.000 A 
ATOM     23  N   UNL     1      -4.228   2.963 -10.214  0.00  0.00    +0.000 NA
ATOM     24  N   UNL     1      -2.714   0.761  -7.002  0.00  0.00    +0.000 NA
BRANCH  22  25
ATOM     25  C   UNL     1      -6.236   3.676  -8.862  0.00  0.00    +0.000 C 
BRANCH  25  26
ATOM     26  O   UNL     1      -6.011   5.061  -9.080  0.00  0.00    +0.000 OA
BRANCH  26  27
ATOM     27  C   UNL     1      -5.109   5.774  -8.247  0.00  0.00    +0.000 A 
ATOM     28  C   UNL     1      -4.881   7.179  -8.468  0.00  0.00    +0.000 A 
ATOM     29  C   UNL     1      -5.568   7.861  -9.535  0.00  0.00    +0.000 A 
ATOM     30  C   UNL     1      -5.340   9.265  -9.756  0.00  0.00    +0.000 A 
ATOM     31  C   UNL     1      -4.425   9.988  -8.911  0.00  0.00    +0.000 A 
ATOM     32  C   UNL     1      -3.738   9.307  -7.845  0.00  0.00    +0.000 A 
ATOM     33  C   UNL     1      -2.823  10.030  -6.999  0.00  0.00    +0.000 A 
ATOM     34  O   UNL     1      -2.217   9.428  -6.058  0.00  0.00    +0.000 OA
ATOM     35  O   UNL     1      -2.610  11.342  -7.206  0.00  0.00    +0.000 OA
ATOM     36  C   UNL     1      -6.027   9.947 -10.823  0.00  0.00    +0.000 A 
ATOM     37  C   UNL     1      -4.422   5.093  -7.180  0.00  0.00    +0.000 A 
ENDBRANCH  26  27
ENDBRANCH  25  26
ENDBRANCH  22  25
ENDBRANCH   1  20
TORSDOF 13
