REMARK  Name = 
REMARK  9 active torsions:
REMARK  status: ('A' for Active; 'I' for Inactive)
REMARK    1  A    between atoms: C_1  and  C_2
REMARK    2  A    between atoms: C_7  and  N_8
REMARK    3  A    between atoms: C_9  and  C_11
REMARK    4  A    between atoms: C_11  and  O_12
REMARK    5  A    between atoms: O_12  and  C_13
REMARK    6  A    between atoms: C_13  and  C_15
REMARK    7  A    between atoms: C_18  and  S_19
REMARK    8  A    between atoms: S_19  and  C_20
REMARK    9  A    between atoms: C_23  and  N_24
REMARK                            x       y       z     vdW  Elec       q    Type
REMARK                         _______ _______ _______ _____ _____    ______ ____
ROOT
ATOM      1  C   UNL     1       2.769   1.933  -0.644  0.00  0.00    +0.000 C 
ATOM      2  O   UNL     1       2.499   2.785  -1.548  0.00  0.00    +0.000 OA
ENDROOT
BRANCH   1   3
ATOM      3  C   UNL     1       4.036   2.079   0.183  0.00  0.00    +0.000 A 
ATOM      4  C   UNL     1       4.930   3.182  -0.057  0.00  0.00    +0.000 A 
ATOM      5  C   UNL     1       4.624   4.147  -1.081  0.00  0.00    +0.000 A 
ATOM      6  C   UNL     1       5.518   5.250  -1.322  0.00  0.00    +0.000 A 
ATOM      7  C   UNL     1       6.718   5.389  -0.538  0.00  0.00    +0.000 A 
ATOM      8  C   UNL     1       4.342   1.114   1.207  0.00  0.00    +0.000 A 
BRANCH   6   9
ATOM      9  S   UNL     1       5.133   6.463  -2.609  0.00  0.00    +0.000 S 
ATOM     10  C   UNL     1       4.982   8.106  -1.864  0.00  0.00    +0.000 C 
ATOM     11  O   UNL     1       6.255   6.476  -3.650  0.00  0.00    +0.000 OA
ATOM     12  O   UNL     1       3.813   6.087  -3.286  0.00  0.00    +0.000 OA
ENDBRANCH   6   9
BRANCH   7  13
ATOM     13  N   UNL     1       7.630   6.515  -0.783  0.00  0.00    +0.000 N 
ATOM     14  O   UNL     1       7.370   7.336  -1.655  0.00  0.00    +0.000 OA
ATOM     15  O   UNL     1       8.772   6.646  -0.037  0.00  0.00    +0.000 OA
ENDBRANCH   7  13
ENDBRANCH   1   3
BRANCH   1  16
ATOM     16  O   UNL     1       1.888   0.845  -0.408  0.00  0.00    +0.000 OA
BRANCH  16  17
ATOM     17  C   UNL     1       0.704   0.709  -1.181  0.00  0.00    +0.000 C 
BRANCH  17  19
ATOM     18  N   UNL     1      -0.660   2.291   0.350  0.00  0.00    +0.000 N 
ATOM     19  C   UNL     1      -0.170   1.938  -0.990  0.00  0.00    +0.000 C 
ATOM     20  O   UNL     1      -0.477   2.661  -1.990  0.00  0.00    +0.000 OA
ATOM     21  H   UNL     1      -1.246   3.116   0.478  0.00  0.00    +0.000 HD
BRANCH  18  28
ATOM     22  C   UNL     1       1.030  -0.074  -0.060  0.00  0.00    +0.000 C 
ATOM     23  C   UNL     1       0.523   0.291   1.326  0.00  0.00    +0.000 A 
ATOM     24  C   UNL     1       0.871  -0.528   2.458  0.00  0.00    +0.000 A 
ATOM     25  C   UNL     1       1.699  -1.692   2.278  0.00  0.00    +0.000 A 
ATOM     26  C   UNL     1       2.047  -2.511   3.411  0.00  0.00    +0.000 A 
ATOM     27  C   UNL     1       2.875  -3.675   3.230  0.00  0.00    +0.000 A 
ATOM     28  C   UNL     1      -0.305   1.455   1.506  0.00  0.00    +0.000 A 
ENDBRANCH  18  28
ENDBRANCH  17  19
ENDBRANCH  16  17
ENDBRANCH   1  16
TORSDOF 7
