REMARK  Name = 
REMARK  3 active torsions:
REMARK  status: ('A' for Active; 'I' for Inactive)
REMARK    1  A    between atoms: C_5  and  C_6
REMARK    2  A    between atoms: C_19  and  C_21
REMARK    3  A    between atoms: C_21  and  O_22
REMARK                            x       y       z     vdW  Elec       q    Type
REMARK                         _______ _______ _______ _____ _____    ______ ____
ROOT
ATOM      1  C   UNL     1       4.613  -3.674  -0.364  0.00  0.00    +0.000 A 
ATOM      2  C   UNL     1       5.333  -2.432  -0.255  0.00  0.00    +0.000 A 
ATOM      3  C   UNL     1       4.613  -1.190  -0.145  0.00  0.00    +0.000 A 
ATOM      4 CL   UNL     1       5.503   0.346  -0.009  0.00  0.00    +0.000 Cl
ATOM      5  C   UNL     1       3.173  -1.190  -0.145  0.00  0.00    +0.000 A 
ATOM      6 CL   UNL     1       2.283  -2.725  -0.281  0.00  0.00    +0.000 Cl
ATOM      7  C   UNL     1       2.453   0.053  -0.035  0.00  0.00    +0.000 A 
ATOM      8  N   UNL     1       1.060   0.053  -0.035  0.00  0.00    +0.000 N 
ATOM      9  C   UNL     1       0.363  -1.149  -0.141  0.00  0.00    +0.000 A 
ATOM     10  C   UNL     1       1.084  -2.391  -0.251  0.00  0.00    +0.000 A 
ATOM     11  C   UNL     1       3.173   1.295   0.075  0.00  0.00    +0.000 A 
ATOM     12  C   UNL     1       0.324  -3.702  -0.367  0.00  0.00    +0.000 C 
ATOM     13  N   UNL     1      -0.522  -3.886   0.822  0.00  0.00    +0.000 N 
ATOM     14  C   UNL     1      -1.979  -4.008   0.676  0.00  0.00    +0.000 C 
ATOM     15  O   UNL     1      -2.710  -4.166   1.703  0.00  0.00    +0.000 OA
ATOM     16  C   UNL     1       0.091  -3.947   2.157  0.00  0.00    +0.000 C 
ATOM     17  C   UNL     1      -1.157  -1.149  -0.141  0.00  0.00    +0.000 C 
ATOM     18  H   UNL     1       0.550   0.933   0.043  0.00  0.00    +0.000 HD
ENDROOT
BRANCH   1  23
ATOM     19  N   UNL     1       0.948   0.079  -0.033  0.00  0.00    +0.000 N 
ATOM     20  C   UNL     1       0.213  -1.190  -0.145  0.00  0.00    +0.000 A 
ATOM     21  C   UNL     1       0.933  -2.432  -0.255  0.00  0.00    +0.000 A 
ATOM     22  C   UNL     1       2.373  -2.432  -0.255  0.00  0.00    +0.000 A 
ATOM     23  C   UNL     1       3.093  -3.674  -0.364  0.00  0.00    +0.000 A 
ATOM     24  C   UNL     1       2.373  -4.917  -0.474  0.00  0.00    +0.000 A 
ATOM     25  N   UNL     1      -1.180  -1.190  -0.145  0.00  0.00    +0.000 NA
ATOM     26  H   UNL     1       0.438   0.958   0.045  0.00  0.00    +0.000 HD
ATOM     27  H   UNL     1       1.968   0.079  -0.033  0.00  0.00    +0.000 HD
ENDBRANCH   1  23
BRANCH  14  28
ATOM     28  C   UNL     1      -2.613  -3.944  -0.705  0.00  0.00    +0.000 C 
BRANCH  28  29
ATOM     29  O   UNL     1      -2.311  -2.694  -1.307  0.00  0.00    +0.000 OA
ATOM     30  H   UNL     1      -2.673  -1.955  -0.740  0.00  0.00    +0.000 HD
ENDBRANCH  28  29
ENDBRANCH  14  28
TORSDOF 3
