REMARK  Name = 
REMARK  9 active torsions:
REMARK  status: ('A' for Active; 'I' for Inactive)
REMARK    1  A    between atoms: C_1  and  C_2
REMARK    2  A    between atoms: C_6  and  C_7
REMARK    3  A    between atoms: C_8  and  N_9
REMARK    4  A    between atoms: N_16  and  C_17
REMARK    5  A    between atoms: C_20  and  O_21
REMARK    6  A    between atoms: O_21  and  C_22
REMARK    7  A    between atoms: C_22  and  C_23
REMARK    8  A    between atoms: C_23  and  N_24
REMARK    9  A    between atoms: N_27  and  C_28
REMARK                            x       y       z     vdW  Elec       q    Type
REMARK                         _______ _______ _______ _____ _____    ______ ____
ROOT
ATOM      1  N   UNL     1      -0.717  -0.454   2.283  0.00  0.00    +0.000 N 
ATOM      2  C   UNL     1      -1.518  -0.686   3.399  0.00  0.00    +0.000 A 
ATOM      3  O   UNL     1      -1.942  -1.859   3.644  0.00  0.00    +0.000 OA
ATOM      4  C   UNL     1      -1.866   0.403   4.275  0.00  0.00    +0.000 A 
ATOM      5  C   UNL     1      -2.694   0.163   5.428  0.00  0.00    +0.000 A 
ATOM      6  N   UNL     1      -3.158  -1.122   5.697  0.00  0.00    +0.000 NA
ATOM      7  C   UNL     1      -2.822  -2.176   4.850  0.00  0.00    +0.000 A 
ATOM      8  N   UNL     1      -1.977  -1.931   3.673  0.00  0.00    +0.000 N 
ATOM      9  N   UNL     1      -3.286  -3.461   5.119  0.00  0.00    +0.000 NA
ATOM     10  C   UNL     1      -1.386   1.732   3.997  0.00  0.00    +0.000 A 
ATOM     11  N   UNL     1      -0.585   1.964   2.881  0.00  0.00    +0.000 N 
ATOM     12  C   UNL     1      -0.121   3.249   2.612  0.00  0.00    +0.000 A 
ATOM     13  C   UNL     1       0.707   3.489   1.458  0.00  0.00    +0.000 A 
ATOM     14  C   UNL     1       1.055   2.400   0.583  0.00  0.00    +0.000 A 
ATOM     15  C   UNL     1       1.883   2.640  -0.571  0.00  0.00    +0.000 A 
ATOM     16  C   UNL     1       2.231   1.551  -1.447  0.00  0.00    +0.000 A 
ATOM     17  C   UNL     1      -0.469   4.339   3.488  0.00  0.00    +0.000 A 
ATOM     18  N   UNL     1      -1.270   4.107   4.604  0.00  0.00    +0.000 NA
ATOM     19  C   UNL     1      -0.249   0.911   2.034  0.00  0.00    +0.000 A 
ATOM     20  H   UNL     1      -1.637  -0.989   3.476  0.00  0.00    +0.000 HD
ENDROOT
BRANCH   1  28
ATOM     21  C   UNL     1       0.972   0.077  -0.058  0.00  0.00    +0.000 C 
ATOM     22  C   UNL     1       0.466  -1.326   0.236  0.00  0.00    +0.000 A 
ATOM     23  C   UNL     1       0.814  -2.415  -0.640  0.00  0.00    +0.000 A 
ATOM     24  C   UNL     1       1.642  -2.175  -1.794  0.00  0.00    +0.000 A 
ATOM     25  C   UNL     1       1.990  -3.264  -2.670  0.00  0.00    +0.000 A 
ATOM     26  C   UNL     1       2.818  -3.024  -3.823  0.00  0.00    +0.000 A 
ATOM     27  C   UNL     1       3.324  -1.622  -4.117  0.00  0.00    +0.000 C 
ATOM     28  C   UNL     1      -0.362  -1.566   1.389  0.00  0.00    +0.000 A 
ENDBRANCH   1  28
BRANCH   8  29
ATOM     29  C   UNL     1      -1.622  -3.042   2.779  0.00  0.00    +0.000 A 
ATOM     30  C   UNL     1      -2.102  -4.371   3.057  0.00  0.00    +0.000 A 
ATOM     31  C   UNL     1      -2.930  -4.611   4.211  0.00  0.00    +0.000 A 
ATOM     32  C   UNL     1      -3.410  -5.940   4.489  0.00  0.00    +0.000 A 
ATOM     33  C   UNL     1      -3.062  -7.030   3.613  0.00  0.00    +0.000 A 
ATOM     34  F   UNL     1      -3.505  -8.257   3.870  0.00  0.00    +0.000 F 
ATOM     35  C   UNL     1      -0.794  -2.802   1.625  0.00  0.00    +0.000 A 
BRANCH  32  36
ATOM     36  O   UNL     1      -4.226  -6.177   5.626  0.00  0.00    +0.000 OA
BRANCH  36  37
ATOM     37  C   UNL     1      -4.569  -5.103   6.490  0.00  0.00    +0.000 C 
BRANCH  37  38
ATOM     38  C   UNL     1      -3.303  -4.493   7.067  0.00  0.00    +0.000 C 
BRANCH  38  39
ATOM     39  N   UNL     1      -2.457  -3.992   5.974  0.00  0.00    +0.000 NA
ATOM     40  C   UNL     1      -2.102  -5.103   5.080  0.00  0.00    +0.000 C 
ATOM     41  C   UNL     1      -1.342  -6.161   5.864  0.00  0.00    +0.000 C 
ATOM     42  N   UNL     1      -2.187  -6.662   6.957  0.00  0.00    +0.000 NA
ATOM     43  C   UNL     1      -1.452  -7.685   7.715  0.00  0.00    +0.000 C 
ATOM     44  C   UNL     1      -2.543  -5.550   7.851  0.00  0.00    +0.000 C 
ATOM     45  C   UNL     1      -1.232  -3.402   6.532  0.00  0.00    +0.000 C 
ENDBRANCH  38  39
ENDBRANCH  37  38
ENDBRANCH  36  37
ENDBRANCH  32  36
ENDBRANCH   8  29
TORSDOF 6
