REMARK  Name = 
REMARK  7 active torsions:
REMARK  status: ('A' for Active; 'I' for Inactive)
REMARK    1  A    between atoms: C_2  and  C_3
REMARK    2  A    between atoms: C_4  and  C_5
REMARK    3  A    between atoms: C_8  and  C_9
REMARK    4  A    between atoms: C_10  and  C_11
REMARK    5  A    between atoms: C_20  and  C_21
REMARK    6  A    between atoms: C_21  and  O_22
REMARK    7  A    between atoms: C_24  and  C_26
REMARK                            x       y       z     vdW  Elec       q    Type
REMARK                         _______ _______ _______ _____ _____    ______ ____
ROOT
ATOM      1  C   UNL     1       3.723   0.059   0.056  0.00  0.00    +0.000 C 
ATOM      2  C   UNL     1       6.401   2.362  -0.559  0.00  0.00    +0.000 C 
ATOM      3  C   UNL     1       5.059   2.225   0.141  0.00  0.00    +0.000 C 
ATOM      4  N   UNL     1       4.213   1.279  -0.601  0.00  0.00    +0.000 N 
ATOM      5  C   UNL     1       3.858   1.552  -2.001  0.00  0.00    +0.000 C 
ATOM      6  O   UNL     1       3.128   0.734  -2.643  0.00  0.00    +0.000 OA
ENDROOT
BRANCH   2   7
ATOM      7  C   UNL     1       7.275   3.341   0.209  0.00  0.00    +0.000 A 
ATOM      8  C   UNL     1       6.840   4.701   0.396  0.00  0.00    +0.000 A 
ATOM      9  C   UNL     1       5.577   5.134  -0.145  0.00  0.00    +0.000 A 
ATOM     10  C   UNL     1       5.142   6.494   0.042  0.00  0.00    +0.000 A 
ATOM     11  C   UNL     1       5.970   7.421   0.769  0.00  0.00    +0.000 A 
ATOM     12  C   UNL     1       8.538   2.908   0.749  0.00  0.00    +0.000 A 
BRANCH  10  13
ATOM     13  C   UNL     1       3.809   6.951  -0.528  0.00  0.00    +0.000 C 
ATOM     14  C   UNL     1       2.666   7.343  -1.017  0.00  0.00    +0.000 C 
BRANCH  14  15
ATOM     15  C   UNL     1       1.333   7.800  -1.587  0.00  0.00    +0.000 A 
ATOM     16  C   UNL     1       1.143   9.178  -1.957  0.00  0.00    +0.000 A 
ATOM     17  C   UNL     1       2.215  10.124  -1.787  0.00  0.00    +0.000 A 
ATOM     18  C   UNL     1       2.025  11.503  -2.156  0.00  0.00    +0.000 A 
ATOM     19  F   UNL     1       3.015  12.377  -1.999  0.00  0.00    +0.000 F 
ATOM     20  C   UNL     1       0.762  11.936  -2.697  0.00  0.00    +0.000 A 
ATOM     21  C   UNL     1       0.261   6.854  -1.758  0.00  0.00    +0.000 A 
ENDBRANCH  14  15
ENDBRANCH  10  13
ENDBRANCH   2   7
BRANCH   5  22
ATOM     22  C   UNL     1       4.365   2.814  -2.682  0.00  0.00    +0.000 C 
ATOM     23  C   UNL     1       5.885   2.814  -2.682  0.00  0.00    +0.000 C 
ATOM     24  C   UNL     1       6.392   1.594  -3.434  0.00  0.00    +0.000 C 
ATOM     25  C   UNL     1       3.858   4.033  -1.929  0.00  0.00    +0.000 C 
ENDBRANCH   5  22
BRANCH   1  27
ATOM     26  N   UNL     1       0.942   0.059   0.056  0.00  0.00    +0.000 NA
ATOM     27  C   UNL     1       2.203   0.059   0.056  0.00  0.00    +0.000 C 
ENDBRANCH   1  27
BRANCH   3  28
ATOM     28  C   UNL     1       4.374   3.582   0.194  0.00  0.00    +0.000 C 
BRANCH  28  29
ATOM     29  O   UNL     1       3.120   3.454   0.847  0.00  0.00    +0.000 OA
ATOM     30  H   UNL     1       2.545   2.810   0.342  0.00  0.00    +0.000 HD
ENDBRANCH  28  29
ENDBRANCH   3  28
TORSDOF 7
