REMARK  Name = 
REMARK  8 active torsions:
REMARK  status: ('A' for Active; 'I' for Inactive)
REMARK    1  A    between atoms: C_1  and  C_2
REMARK    2  A    between atoms: C_3  and  C_4
REMARK    3  A    between atoms: C_4  and  O_5
REMARK    4  A    between atoms: C_8  and  C_9
REMARK    5  A    between atoms: C_13  and  C_14
REMARK    6  A    between atoms: C_14  and  C_15
REMARK    7  A    between atoms: C_14  and  C_16
REMARK    8  A    between atoms: C_17  and  O_18
REMARK                            x       y       z     vdW  Elec       q    Type
REMARK                         _______ _______ _______ _____ _____    ______ ____
ROOT
ATOM      1  C   UNL     1       1.080  -0.009  -0.059  0.00  0.00    +0.000 C 
ATOM      2  C   UNL     1       0.574   0.785   1.134  0.00  0.00    +0.000 C 
ATOM      3  C   UNL     1      -0.455   0.585   2.002  0.00  0.00    +0.000 C 
ATOM      4  C   UNL     1      -0.739   1.604   3.093  0.00  0.00    +0.000 C 
ATOM      5  C   UNL     1      -1.050   2.951   2.459  0.00  0.00    +0.000 C 
ATOM      6  C   UNL     1       0.141   3.410   1.634  0.00  0.00    +0.000 C 
ATOM      7  C   UNL     1      -0.170   4.756   1.001  0.00  0.00    +0.000 C 
ATOM      8  C   UNL     1       0.425   2.390   0.543  0.00  0.00    +0.000 A 
ATOM      9  C   UNL     1       1.514   2.603  -0.375  0.00  0.00    +0.000 A 
ATOM     10  C   UNL     1       2.334   3.781  -0.260  0.00  0.00    +0.000 A 
ATOM     11  C   UNL     1       3.422   3.993  -1.179  0.00  0.00    +0.000 A 
ATOM     12  C   UNL     1       3.691   3.027  -2.212  0.00  0.00    +0.000 A 
ATOM     13  C   UNL     1      -0.395   1.212   0.428  0.00  0.00    +0.000 A 
ATOM     14  C   UNL     1      -1.544   0.987   1.397  0.00  0.00    +0.000 C 
ATOM     15  C   UNL     1      -2.533   2.135   1.284  0.00  0.00    +0.000 C 
ATOM     16  C   UNL     1       1.360   3.542   2.533  0.00  0.00    +0.000 C 
ENDROOT
BRANCH  11  17
ATOM     17  C   UNL     1       4.287   5.237  -1.057  0.00  0.00    +0.000 C 
ATOM     18  C   UNL     1       3.850   6.042   0.156  0.00  0.00    +0.000 C 
ATOM     19  C   UNL     1       5.743   4.829  -0.897  0.00  0.00    +0.000 C 
ENDBRANCH  11  17
BRANCH  12  20
ATOM     20  O   UNL     1       4.556   2.742  -3.302  0.00  0.00    +0.000 OA
ATOM     21  H   UNL     1       5.425   3.090  -3.653  0.00  0.00    +0.000 HD
ENDBRANCH  12  20
BRANCH   3  22
ATOM     22  C   UNL     1      -1.320  -0.659   1.880  0.00  0.00    +0.000 C 
BRANCH  22  23
ATOM     23  O   UNL     1      -2.679  -0.277   1.730  0.00  0.00    +0.000 OA
ATOM     24  H   UNL     1      -2.966   0.253   2.528  0.00  0.00    +0.000 HD
ENDBRANCH  22  23
ENDBRANCH   3  22
TORSDOF 4
