REMARK  Name = 
REMARK  10 active torsions:
REMARK  status: ('A' for Active; 'I' for Inactive)
REMARK    1  A    between atoms: C_1  and  O_2
REMARK    2  A    between atoms: O_2  and  C_3
REMARK    3  A    between atoms: C_6  and  C_7
REMARK    4  A    between atoms: C_8  and  C_9
REMARK    5  A    between atoms: C_9  and  C_11
REMARK    6  A    between atoms: C_16  and  O_17
REMARK    7  A    between atoms: C_20  and  C_21
REMARK    8  A    between atoms: C_20  and  C_22
REMARK    9  A    between atoms: C_25  and  O_26
REMARK   10  A    between atoms: O_26  and  C_27
REMARK                            x       y       z     vdW  Elec       q    Type
REMARK                         _______ _______ _______ _____ _____    ______ ____
ROOT
ATOM      1  C   UNL     1      -3.186  -4.611   6.469  0.00  0.00    +0.000 C 
ATOM      2  O   UNL     1      -3.610  -5.554   7.208  0.00  0.00    +0.000 OA
ENDROOT
BRANCH   1   3
ATOM      3  C   UNL     1      -3.554  -3.171   6.789  0.00  0.00    +0.000 A 
ATOM      4  C   UNL     1      -4.382  -2.876   7.930  0.00  0.00    +0.000 A 
ATOM      5  C   UNL     1      -4.862  -3.944   8.767  0.00  0.00    +0.000 A 
ATOM      6  C   UNL     1      -5.690  -3.649   9.908  0.00  0.00    +0.000 A 
ATOM      7  C   UNL     1      -6.038  -2.285  10.211  0.00  0.00    +0.000 A 
ATOM      8  C   UNL     1      -3.074  -2.103   5.951  0.00  0.00    +0.000 A 
ATOM      9  C   UNL     1      -6.911  -1.973  11.415  0.00  0.00    +0.000 C 
ATOM     10  C   UNL     1      -7.365  -2.982  12.206  0.00  0.00    +0.000 C 
ATOM     11  C   UNL     1      -8.239  -2.670  13.410  0.00  0.00    +0.000 C 
ATOM     12  C   UNL     1      -7.555  -3.164  14.675  0.00  0.00    +0.000 C 
ATOM     13  C   UNL     1      -8.454  -1.168  13.504  0.00  0.00    +0.000 C 
ATOM     14  O   UNL     1      -6.163  -4.702  10.734  0.00  0.00    +0.000 OA
BRANCH   8  15
ATOM     15  O   UNL     1      -2.257  -2.394   4.827  0.00  0.00    +0.000 OA
ATOM     16  H   UNL     1      -1.924  -1.652   4.245  0.00  0.00    +0.000 HD
ENDBRANCH   8  15
ENDBRANCH   1   3
BRANCH   1  18
ATOM     17  C   UNL     1      -1.859  -3.914   4.474  0.00  0.00    +0.000 C 
ATOM     18  C   UNL     1      -2.313  -4.923   5.265  0.00  0.00    +0.000 C 
BRANCH  17  22
ATOM     19  C   UNL     1       0.803  -2.384   0.454  0.00  0.00    +0.000 A 
ATOM     20  C   UNL     1       0.323  -3.453   1.292  0.00  0.00    +0.000 A 
ATOM     21  C   UNL     1      -0.505  -3.157   2.433  0.00  0.00    +0.000 A 
ATOM     22  C   UNL     1      -0.985  -4.226   3.270  0.00  0.00    +0.000 A 
ATOM     23  C   UNL     1      -0.637  -5.590   2.967  0.00  0.00    +0.000 A 
ATOM     24  C   UNL     1       1.631  -2.680  -0.687  0.00  0.00    +0.000 A 
BRANCH  19  26
ATOM     25  C   UNL     1       0.933   0.015  -0.073  0.00  0.00    +0.000 C 
ATOM     26  O   UNL     1       0.460  -1.039   0.753  0.00  0.00    +0.000 OA
ENDBRANCH  19  26
BRANCH  24  27
ATOM     27  O   UNL     1       2.104  -1.626  -1.512  0.00  0.00    +0.000 OA
ATOM     28  C   UNL     1       2.921  -1.918  -2.637  0.00  0.00    +0.000 C 
ENDBRANCH  24  27
ENDBRANCH  17  22
ENDBRANCH   1  18
TORSDOF 6
