REMARK  Name = 
REMARK  5 active torsions:
REMARK  status: ('A' for Active; 'I' for Inactive)
REMARK    1  A    between atoms: C_1  and  O_2
REMARK    2  A    between atoms: O_2  and  C_3
REMARK    3  A    between atoms: C_12  and  C_13
REMARK    4  A    between atoms: C_25  and  C_26
REMARK    5  A    between atoms: C_25  and  C_27
REMARK                            x       y       z     vdW  Elec       q    Type
REMARK                         _______ _______ _______ _____ _____    ______ ____
ROOT
ATOM      1  C   UNL     1       0.808  -1.456  -1.881  0.00  0.00    +0.000 A 
ATOM      2  C   UNL     1       0.328  -2.674  -2.480  0.00  0.00    +0.000 A 
ATOM      3  C   UNL     1      -0.500  -3.574  -1.719  0.00  0.00    +0.000 A 
ATOM      4  C   UNL     1      -0.848  -3.255  -0.358  0.00  0.00    +0.000 A 
ATOM      5  C   UNL     1      -0.368  -2.036   0.241  0.00  0.00    +0.000 A 
ATOM      6  C   UNL     1      -1.320   0.714   2.905  0.00  0.00    +0.000 A 
ATOM      7  C   UNL     1      -1.105   0.147   1.511  0.00  0.00    +0.000 C 
ATOM      8  O   UNL     1      -1.631  -0.964   1.189  0.00  0.00    +0.000 OA
ATOM      9  C   UNL     1      -0.260   0.909   0.502  0.00  0.00    +0.000 C 
ATOM     10  C   UNL     1       0.922   0.052   0.081  0.00  0.00    +0.000 C 
ATOM     11  O   UNL     1       0.449  -1.149  -0.510  0.00  0.00    +0.000 OA
ATOM     12  C   UNL     1      -1.722  -4.204   0.445  0.00  0.00    +0.000 C 
ATOM     13  C   UNL     1      -2.175  -5.355  -0.121  0.00  0.00    +0.000 C 
ATOM     14  C   UNL     1      -3.049  -6.304   0.683  0.00  0.00    +0.000 C 
ATOM     15  C   UNL     1      -2.365  -7.657   0.787  0.00  0.00    +0.000 C 
ATOM     16  C   UNL     1      -3.264  -5.737   2.077  0.00  0.00    +0.000 C 
ATOM     17  O   UNL     1      -0.973  -4.775  -2.310  0.00  0.00    +0.000 OA
ENDROOT
BRANCH  10  18
ATOM     18  C   UNL     1       1.767  -0.281   1.300  0.00  0.00    +0.000 A 
ATOM     19  C   UNL     1       1.187  -1.006   2.401  0.00  0.00    +0.000 A 
ATOM     20  C   UNL     1      -0.193  -1.414   2.348  0.00  0.00    +0.000 A 
ATOM     21  C   UNL     1      -0.773  -2.139   3.449  0.00  0.00    +0.000 A 
ATOM     22  C   UNL     1       0.027  -2.454   4.604  0.00  0.00    +0.000 A 
ATOM     23  C   UNL     1       3.147   0.127   1.354  0.00  0.00    +0.000 A 
ATOM     24  O   UNL     1      -0.545  -3.169   5.690  0.00  0.00    +0.000 OA
ATOM     25  C   UNL     1       0.244  -3.480   6.829  0.00  0.00    +0.000 C 
ATOM     26  O   UNL     1      -2.134  -2.541   3.396  0.00  0.00    +0.000 OA
ENDBRANCH  10  18
BRANCH   1  28
ATOM     27  C   UNL     1       0.939   0.060   0.051  0.00  0.00    +0.000 C 
ATOM     28  O   UNL     1       0.465  -1.141  -0.540  0.00  0.00    +0.000 OA
ENDBRANCH   1  28
TORSDOF 2
