REMARK  Name = 
REMARK  4 active torsions:
REMARK  status: ('A' for Active; 'I' for Inactive)
REMARK    1  A    between atoms: C_1  and  O_2
REMARK    2  A    between atoms: O_2  and  C_3
REMARK    3  A    between atoms: C_6  and  O_7
REMARK    4  A    between atoms: O_7  and  C_8
REMARK                            x       y       z     vdW  Elec       q    Type
REMARK                         _______ _______ _______ _____ _____    ______ ____
ROOT
ATOM      1  C   UNL     1       0.776   2.255   0.925  0.00  0.00    +0.000 A 
ATOM      2  C   UNL     1       0.296   3.610   0.828  0.00  0.00    +0.000 A 
ATOM      3  C   UNL     1      -0.532   4.003  -0.283  0.00  0.00    +0.000 A 
ATOM      4  C   UNL     1      -1.012   5.357  -0.380  0.00  0.00    +0.000 A 
ATOM      5  C   UNL     1      -0.664   6.319   0.634  0.00  0.00    +0.000 A 
ATOM      6  C   UNL     1      -1.144   7.673   0.537  0.00  0.00    +0.000 A 
ATOM      7  S   UNL     1      -2.076   8.115  -0.712  0.00  0.00    +0.000 S 
ATOM      8  C   UNL     1      -0.796   8.634   1.551  0.00  0.00    +0.000 A 
ATOM      9  C   UNL     1      -1.276   9.989   1.455  0.00  0.00    +0.000 A 
ATOM     10  C   UNL     1      -2.104  10.382   0.344  0.00  0.00    +0.000 A 
ATOM     11  C   UNL     1      -2.585  11.736   0.247  0.00  0.00    +0.000 A 
ATOM     12  C   UNL     1      -3.413  12.129  -0.864  0.00  0.00    +0.000 A 
ATOM     13  C   UNL     1       0.032   8.242   2.662  0.00  0.00    +0.000 A 
ATOM     14  N   UNL     1       0.496   6.932   2.756  0.00  0.00    +0.000 N 
ATOM     15  C   UNL     1       0.164   5.926   1.745  0.00  0.00    +0.000 A 
ATOM     16  H   UNL     1       1.082   6.654   3.543  0.00  0.00    +0.000 HD
ENDROOT
BRANCH   1  18
ATOM     17  C   UNL     1       0.906  -0.028   0.020  0.00  0.00    +0.000 C 
ATOM     18  O   UNL     1       0.433   1.307  -0.075  0.00  0.00    +0.000 OA
ENDBRANCH   1  18
BRANCH   4  19
ATOM     19  O   UNL     1      -1.829   5.744  -1.475  0.00  0.00    +0.000 OA
ATOM     20  C   UNL     1      -2.172   4.796  -2.475  0.00  0.00    +0.000 C 
ENDBRANCH   4  19
TORSDOF 2
