REMARK  Name = 
REMARK  5 active torsions:
REMARK  status: ('A' for Active; 'I' for Inactive)
REMARK    1  A    between atoms: C_13  and  C_14
REMARK    2  A    between atoms: C_14  and  O_15
REMARK    3  A    between atoms: C_16  and  C_17
REMARK    4  A    between atoms: C_20  and  O_21
REMARK    5  A    between atoms: C_22  and  O_23
REMARK                            x       y       z     vdW  Elec       q    Type
REMARK                         _______ _______ _______ _____ _____    ______ ____
ROOT
ATOM      1  O   UNL     1       0.966   0.089  -0.030  0.00  0.00    +0.000 OA
ATOM      2  C   UNL     1       2.237   0.089  -0.030  0.00  0.00    +0.000 A 
ATOM      3  C   UNL     1       2.957   1.325   0.141  0.00  0.00    +0.000 A 
ATOM      4  C   UNL     1       2.237   2.560   0.313  0.00  0.00    +0.000 A 
ATOM      5  C   UNL     1       2.957   3.795   0.484  0.00  0.00    +0.000 A 
ATOM      6  C   UNL     1       4.398   3.795   0.484  0.00  0.00    +0.000 A 
ATOM      7  C   UNL     1       5.118   2.560   0.313  0.00  0.00    +0.000 A 
ATOM      8  C   UNL     1       4.398   1.325   0.141  0.00  0.00    +0.000 A 
ATOM      9  C   UNL     1       2.957   1.325   0.141  0.00  0.00    +0.000 A 
ATOM     10  C   UNL     1       2.237   5.031   0.656  0.00  0.00    +0.000 A 
ATOM     11  O   UNL     1       2.910  -1.065  -0.191  0.00  0.00    +0.000 OA
ATOM     12  O   UNL     1       5.108   0.106  -0.028  0.00  0.00    +0.000 OA
ATOM     13  C   UNL     1       4.398  -1.112  -0.197  0.00  0.00    +0.000 C 
ATOM     14  C   UNL     1       3.524  -1.021  -1.438  0.00  0.00    +0.000 C 
ATOM     15  O   UNL     1       6.538   2.560   0.313  0.00  0.00    +0.000 OA
ENDROOT
BRANCH  14  16
ATOM     16  C   UNL     1       2.536   0.124  -1.279  0.00  0.00    +0.000 A 
ATOM     17  C   UNL     1       3.018   1.468  -1.092  0.00  0.00    +0.000 A 
ATOM     18  C   UNL     1       4.435   1.726  -1.057  0.00  0.00    +0.000 A 
ATOM     19  C   UNL     1       4.917   3.070  -0.870  0.00  0.00    +0.000 A 
ATOM     20  C   UNL     1       3.983   4.156  -0.719  0.00  0.00    +0.000 A 
ATOM     21  C   UNL     1       1.120  -0.135  -1.314  0.00  0.00    +0.000 A 
BRANCH  19  22
ATOM     22  O   UNL     1       6.314   3.325  -0.835  0.00  0.00    +0.000 OA
ATOM     23  H   UNL     1       6.962   2.571  -0.940  0.00  0.00    +0.000 HD
ENDBRANCH  19  22
BRANCH  20  24
ATOM     24  O   UNL     1       4.459   5.481  -0.535  0.00  0.00    +0.000 OA
ATOM     25  H   UNL     1       3.811   6.235  -0.429  0.00  0.00    +0.000 HD
ENDBRANCH  20  24
ENDBRANCH  14  16
BRANCH  13  26
ATOM     26  C   UNL     1       5.385  -2.256  -0.356  0.00  0.00    +0.000 C 
BRANCH  26  27
ATOM     27  O   UNL     1       5.358  -3.426   0.449  0.00  0.00    +0.000 OA
ATOM     28  H   UNL     1       5.186  -3.172   1.400  0.00  0.00    +0.000 HD
ENDBRANCH  26  27
ENDBRANCH  13  26
TORSDOF 5
