REMARK  Name = 
REMARK  9 active torsions:
REMARK  status: ('A' for Active; 'I' for Inactive)
REMARK    1  A    between atoms: C_1  and  O_2
REMARK    2  A    between atoms: O_2  and  C_3
REMARK    3  A    between atoms: C_5  and  C_6
REMARK    4  A    between atoms: N_11  and  C_12
REMARK    5  A    between atoms: C_12  and  C_13
REMARK    6  A    between atoms: C_12  and  C_20
REMARK    7  A    between atoms: C_13  and  C_14
REMARK    8  A    between atoms: C_20  and  O_22
REMARK    9  A    between atoms: C_27  and  O_28
REMARK                            x       y       z     vdW  Elec       q    Type
REMARK                         _______ _______ _______ _____ _____    ______ ____
ROOT
ATOM      1  C   UNL     1      -0.895   1.217  -5.257  0.00  0.00    +0.000 C 
ATOM      2  C   UNL     1      -1.677   0.330  -5.928  0.00  0.00    +0.000 C 
ATOM      3  S   UNL     1      -2.114  -1.251  -5.163  0.00  0.00    +0.000 S 
ATOM      4  C   UNL     1      -3.155  -2.203  -6.298  0.00  0.00    +0.000 C 
ATOM      5  S   UNL     1      -3.546  -1.590  -7.745  0.00  0.00    +0.000 S 
ATOM      6  N   UNL     1      -3.645  -3.532  -5.906  0.00  0.00    +0.000 N 
ATOM      7  C   UNL     1      -2.184   0.666  -7.321  0.00  0.00    +0.000 C 
ATOM      8  O   UNL     1      -1.877   1.776  -7.859  0.00  0.00    +0.000 OA
ENDROOT
BRANCH   1  11
ATOM      9  C   UNL     1       0.920   1.502  -1.832  0.00  0.00    +0.000 A 
ATOM     10  C   UNL     1       0.440   1.821  -3.152  0.00  0.00    +0.000 A 
ATOM     11  C   UNL     1      -0.388   0.881  -3.863  0.00  0.00    +0.000 A 
ATOM     12  C   UNL     1      -0.736  -0.377  -3.255  0.00  0.00    +0.000 A 
ATOM     13  C   UNL     1      -0.256  -0.695  -1.935  0.00  0.00    +0.000 A 
ATOM     14  C   UNL     1       1.748   2.442  -1.121  0.00  0.00    +0.000 A 
BRANCH   9  16
ATOM     15  C   UNL     1       1.050  -0.052   0.069  0.00  0.00    +0.000 C 
ATOM     16  O   UNL     1       0.577   0.262  -1.232  0.00  0.00    +0.000 OA
ENDBRANCH   9  16
BRANCH  14  17
ATOM     17  O   UNL     1       2.221   2.128   0.180  0.00  0.00    +0.000 OA
ATOM     18  H   UNL     1       2.796   2.780   0.674  0.00  0.00    +0.000 HD
ENDBRANCH  14  17
ENDBRANCH   1  11
BRANCH   6  19
ATOM     19  C   UNL     1      -4.490  -4.305  -6.827  0.00  0.00    +0.000 C 
BRANCH  19  20
ATOM     20  C   UNL     1      -3.730  -4.560  -8.118  0.00  0.00    +0.000 C 
ATOM     21  O   UNL     1      -3.500  -5.752  -8.496  0.00  0.00    +0.000 OA
BRANCH  20  22
ATOM     22  O   UNL     1      -3.277  -3.467  -8.904  0.00  0.00    +0.000 OA
ATOM     23  H   UNL     1      -2.777  -3.635  -9.753  0.00  0.00    +0.000 HD
ENDBRANCH  20  22
ENDBRANCH  19  20
BRANCH  19  24
ATOM     24  C   UNL     1      -5.757  -3.522  -7.131  0.00  0.00    +0.000 C 
BRANCH  24  25
ATOM     25  C   UNL     1      -5.390  -2.194  -7.773  0.00  0.00    +0.000 A 
ATOM     26  C   UNL     1      -4.562  -1.255  -7.062  0.00  0.00    +0.000 A 
ATOM     27  C   UNL     1      -4.082  -1.573  -5.742  0.00  0.00    +0.000 A 
ATOM     28  C   UNL     1      -3.254  -0.634  -5.031  0.00  0.00    +0.000 A 
ATOM     29  C   UNL     1      -2.774  -0.952  -3.711  0.00  0.00    +0.000 A 
ATOM     30  C   UNL     1      -5.870  -1.876  -9.093  0.00  0.00    +0.000 A 
ENDBRANCH  24  25
ENDBRANCH  19  24
ENDBRANCH   6  19
TORSDOF 8
