REMARK  Name = 
REMARK  9 active torsions:
REMARK  status: ('A' for Active; 'I' for Inactive)
REMARK    1  A    between atoms: C_1  and  C_2
REMARK    2  A    between atoms: C_2  and  C_3
REMARK    3  A    between atoms: C_3  and  O_4
REMARK    4  A    between atoms: O_4  and  C_5
REMARK    5  A    between atoms: C_8  and  C_9
REMARK    6  A    between atoms: N_11  and  N_12
REMARK    7  A    between atoms: N_12  and  C_13
REMARK    8  A    between atoms: C_13  and  N_15
REMARK    9  A    between atoms: C_16  and  C_18
REMARK                            x       y       z     vdW  Elec       q    Type
REMARK                         _______ _______ _______ _____ _____    ______ ____
ROOT
ATOM      1  C   UNL     1      -1.883  -1.125   6.823  0.00  0.00    +0.000 C 
ATOM      2  O   UNL     1      -2.307  -0.677   7.935  0.00  0.00    +0.000 OA
ATOM      3  N   UNL     1      -2.238  -2.486   6.396  0.00  0.00    +0.000 N 
ATOM      4  H   UNL     1      -2.824  -3.071   6.992  0.00  0.00    +0.000 HD
ENDROOT
BRANCH   1   8
ATOM      5  C   UNL     1       0.779  -0.444   2.576  0.00  0.00    +0.000 A 
ATOM      6  C   UNL     1       0.299   0.063   3.836  0.00  0.00    +0.000 A 
ATOM      7  C   UNL     1      -0.529  -0.762   4.677  0.00  0.00    +0.000 A 
ATOM      8  C   UNL     1      -1.009  -0.254   5.936  0.00  0.00    +0.000 A 
ATOM      9  C   UNL     1      -0.661   1.079   6.354  0.00  0.00    +0.000 A 
ATOM     10  C   UNL     1       1.607   0.381   1.736  0.00  0.00    +0.000 A 
BRANCH   5  11
ATOM     11  O   UNL     1       0.436  -1.759   2.164  0.00  0.00    +0.000 OA
BRANCH  11  12
ATOM     12  C   UNL     1       0.909  -2.260   0.922  0.00  0.00    +0.000 C 
BRANCH  12  14
ATOM     13  C   UNL     1       0.909   0.042  -0.006  0.00  0.00    +0.000 C 
ATOM     14  C   UNL     1       0.403  -1.377  -0.206  0.00  0.00    +0.000 C 
ENDBRANCH  12  14
ENDBRANCH  11  12
ENDBRANCH   5  11
ENDBRANCH   1   8
BRANCH   3  15
ATOM     15  N   UNL     1      -1.765  -2.987   5.155  0.00  0.00    +0.000 N 
ATOM     16  H   UNL     1      -1.178  -2.403   4.559  0.00  0.00    +0.000 HD
BRANCH  15  17
ATOM     17  C   UNL     1      -2.120  -4.348   4.728  0.00  0.00    +0.000 C 
ATOM     18  S   UNL     1      -1.580  -4.920   3.312  0.00  0.00    +0.000 S 
BRANCH  17  19
ATOM     19  N   UNL     1      -2.965  -5.191   5.586  0.00  0.00    +0.000 N 
ATOM     20  C   UNL     1      -3.455  -4.672   6.872  0.00  0.00    +0.000 C 
ATOM     21  O   UNL     1      -4.186  -5.401   7.614  0.00  0.00    +0.000 OA
ATOM     22  H   UNL     1      -3.211  -6.135   5.290  0.00  0.00    +0.000 HD
BRANCH  20  23
ATOM     23  C   UNL     1      -3.088  -3.265   7.313  0.00  0.00    +0.000 A 
ATOM     24  C   UNL     1      -3.568  -2.757   8.572  0.00  0.00    +0.000 A 
ATOM     25  C   UNL     1      -4.396  -3.582   9.413  0.00  0.00    +0.000 A 
ATOM     26  C   UNL     1      -4.876  -3.075  10.672  0.00  0.00    +0.000 A 
ATOM     27  C   UNL     1      -5.704  -3.900  11.513  0.00  0.00    +0.000 A 
ATOM     28  C   UNL     1      -2.260  -2.439   6.472  0.00  0.00    +0.000 A 
ENDBRANCH  20  23
ENDBRANCH  17  19
ENDBRANCH  15  17
ENDBRANCH   3  15
TORSDOF 8
