REMARK  Name = 
REMARK  8 active torsions:
REMARK  status: ('A' for Active; 'I' for Inactive)
REMARK    1  A    between atoms: C_1  and  C_2
REMARK    2  A    between atoms: C_2  and  N_3
REMARK    3  A    between atoms: C_4  and  O_5
REMARK    4  A    between atoms: C_6  and  C_7
REMARK    5  A    between atoms: N_8  and  N_9
REMARK    6  A    between atoms: C_10  and  C_12
REMARK    7  A    between atoms: N_20  and  C_21
REMARK    8  A    between atoms: C_21  and  C_22
REMARK                            x       y       z     vdW  Elec       q    Type
REMARK                         _______ _______ _______ _____ _____    ______ ____
ROOT
ATOM      1  N   UNL     1       1.052  -2.060  -1.175  0.00  0.00    +0.000 N 
ATOM      2  C   UNL     1       2.421  -2.314  -1.174  0.00  0.00    +0.000 A 
ATOM      3  C   UNL     1       2.901  -3.672  -1.165  0.00  0.00    +0.000 A 
ATOM      4  C   UNL     1       4.317  -3.935  -1.163  0.00  0.00    +0.000 A 
ATOM      5  O   UNL     1       5.143  -2.969  -1.170  0.00  0.00    +0.000 OA
ATOM      6  N   UNL     1       4.782  -5.248  -1.155  0.00  0.00    +0.000 N 
ATOM      7  C   UNL     1       0.147  -3.118  -1.169  0.00  0.00    +0.000 A 
ATOM      8  S   UNL     1      -1.446  -2.822  -1.170  0.00  0.00    +0.000 S 
ENDROOT
BRANCH   1  10
ATOM      9  C   UNL     1       1.069   0.051   0.052  0.00  0.00    +0.000 C 
ATOM     10  C   UNL     1       0.562  -0.674  -1.184  0.00  0.00    +0.000 C 
ENDBRANCH   1  10
BRANCH   2  11
ATOM     11  O   UNL     1       3.344  -1.235  -1.181  0.00  0.00    +0.000 OA
ATOM     12  H   UNL     1       3.011  -0.292  -1.187  0.00  0.00    +0.000 HD
ENDBRANCH   2  11
BRANCH   3  13
ATOM     13  C   UNL     1       1.914  -4.827  -1.158  0.00  0.00    +0.000 C 
ATOM     14  N   UNL     1       2.352  -6.068  -1.150  0.00  0.00    +0.000 NA
BRANCH  14  15
ATOM     15  N   UNL     1       1.429  -7.147  -1.143  0.00  0.00    +0.000 N 
ATOM     16  C   UNL     1      -0.016  -6.878  -1.145  0.00  0.00    +0.000 C 
ATOM     17  O   UNL     1      -0.842  -7.844  -1.138  0.00  0.00    +0.000 OA
ATOM     18  H   UNL     1       1.769  -8.109  -1.137  0.00  0.00    +0.000 HD
BRANCH  16  19
ATOM     19  C   UNL     1      -0.522  -5.445  -1.154  0.00  0.00    +0.000 A 
ATOM     20  C   UNL     1      -1.938  -5.182  -1.155  0.00  0.00    +0.000 A 
ATOM     21  C   UNL     1      -2.874  -6.277  -1.148  0.00  0.00    +0.000 A 
ATOM     22  C   UNL     1      -4.290  -6.014  -1.150  0.00  0.00    +0.000 A 
ATOM     23  C   UNL     1      -5.226  -7.108  -1.143  0.00  0.00    +0.000 A 
ATOM     24  C   UNL     1       0.413  -4.351  -1.161  0.00  0.00    +0.000 A 
ENDBRANCH  16  19
ENDBRANCH  14  15
ENDBRANCH   3  13
BRANCH   6  25
ATOM     25  C   UNL     1       6.227  -5.517  -1.153  0.00  0.00    +0.000 C 
ATOM     26  C   UNL     1       6.856  -4.913  -2.398  0.00  0.00    +0.000 C 
ENDBRANCH   6  25
TORSDOF 6
