REMARK  Name = 
REMARK  2 active torsions:
REMARK  status: ('A' for Active; 'I' for Inactive)
REMARK    1  A    between atoms: S_2  and  C_4
REMARK    2  A    between atoms: S_2  and  N_11
REMARK                            x       y       z     vdW  Elec       q    Type
REMARK                         _______ _______ _______ _____ _____    ______ ____
ROOT
ATOM      1  N   UNL     1       3.164  -0.934  -1.341  0.00  0.00    +0.000 N 
ATOM      2  C   UNL     1       4.609  -1.099  -1.553  0.00  0.00    +0.000 A 
ATOM      3  C   UNL     1       5.089  -1.932  -2.626  0.00  0.00    +0.000 A 
ATOM      4  C   UNL     1       4.154  -2.603  -3.491  0.00  0.00    +0.000 A 
ATOM      5  C   UNL     1       4.634  -3.435  -4.564  0.00  0.00    +0.000 A 
ATOM      6  C   UNL     1       3.698  -4.106  -5.428  0.00  0.00    +0.000 A 
ATOM      7  C   UNL     1       5.545  -0.428  -0.689  0.00  0.00    +0.000 A 
ATOM      8  O   UNL     1       5.072   0.393   0.369  0.00  0.00    +0.000 OA
ATOM      9  C   UNL     1       5.995   1.055   1.222  0.00  0.00    +0.000 A 
ATOM     10  N   UNL     1       5.530   1.860   2.259  0.00  0.00    +0.000 NA
ATOM     11  C   UNL     1       6.436   2.509   3.095  0.00  0.00    +0.000 A 
ATOM     12  C   UNL     1       5.955   3.341   4.168  0.00  0.00    +0.000 A 
ATOM     13  C   UNL     1       4.540   3.502   4.376  0.00  0.00    +0.000 A 
ATOM     14  C   UNL     1       4.059   4.335   5.449  0.00  0.00    +0.000 A 
ATOM     15  C   UNL     1       2.644   4.496   5.657  0.00  0.00    +0.000 A 
ATOM     16  C   UNL     1       7.851   2.347   2.888  0.00  0.00    +0.000 A 
ATOM     17  N   UNL     1       8.316   1.542   1.850  0.00  0.00    +0.000 NA
ATOM     18  C   UNL     1       2.209  -1.619  -2.224  0.00  0.00    +0.000 A 
ENDROOT
BRANCH   1  20
ATOM     19  O   UNL     1       1.047   0.083  -0.030  0.00  0.00    +0.000 OA
ATOM     20  S   UNL     1       2.577   0.083  -0.030  0.00  0.00    +0.000 S 
ATOM     21  O   UNL     1       3.088   1.512  -0.226  0.00  0.00    +0.000 OA
BRANCH  20  22
ATOM     22  C   UNL     1       3.181  -0.562   1.550  0.00  0.00    +0.000 A 
ATOM     23  C   UNL     1       2.833   0.104   2.779  0.00  0.00    +0.000 A 
ATOM     24  C   UNL     1       2.005   1.282   2.751  0.00  0.00    +0.000 A 
ATOM     25  C   UNL     1       1.657   1.947   3.980  0.00  0.00    +0.000 A 
ATOM     26 CL   UNL     1       0.634   3.403   3.945  0.00  0.00    +0.000 Cl
ATOM     27  C   UNL     1       2.137   1.434   5.237  0.00  0.00    +0.000 A 
ATOM     28  C   UNL     1       4.009  -1.740   1.578  0.00  0.00    +0.000 A 
ENDBRANCH  20  22
ENDBRANCH   1  20
TORSDOF 2
