REMARK  Name = 
REMARK  9 active torsions:
REMARK  status: ('A' for Active; 'I' for Inactive)
REMARK    1  A    between atoms: C_1  and  C_2
REMARK    2  A    between atoms: C_10  and  C_11
REMARK    3  A    between atoms: C_11  and  C_12
REMARK    4  A    between atoms: C_12  and  N_13
REMARK    5  A    between atoms: C_14  and  C_16
REMARK    6  A    between atoms: C_25  and  C_26
REMARK    7  A    between atoms: C_26  and  C_27
REMARK    8  A    between atoms: C_26  and  C_28
REMARK    9  A    between atoms: C_26  and  C_29
REMARK                            x       y       z     vdW  Elec       q    Type
REMARK                         _______ _______ _______ _____ _____    ______ ____
ROOT
ATOM      1  C   UNL     1       1.187   3.456  -2.222  0.00  0.00    +0.000 A 
ATOM      2  C   UNL     1       1.535   3.707  -3.597  0.00  0.00    +0.000 A 
ATOM      3  N   UNL     1       2.336   2.801  -4.289  0.00  0.00    +0.000 NA
ATOM      4  C   UNL     1       2.800   1.653  -3.651  0.00  0.00    +0.000 A 
ATOM      5  N   UNL     1       2.445   1.398  -2.248  0.00  0.00    +0.000 N 
ATOM      6  C   UNL     1       2.935   0.186  -1.575  0.00  0.00    +0.000 A 
ATOM      7  C   UNL     1       3.763  -0.750  -2.290  0.00  0.00    +0.000 A 
ATOM      8  C   UNL     1       4.111  -0.500  -3.665  0.00  0.00    +0.000 A 
ATOM      9  C   UNL     1       4.939  -1.436  -4.380  0.00  0.00    +0.000 A 
ATOM     10  C   UNL     1       5.287  -1.186  -5.755  0.00  0.00    +0.000 A 
ATOM     11  N   UNL     1       2.599  -0.056  -0.245  0.00  0.00    +0.000 NA
ATOM     12  N   UNL     1       3.601   0.748  -4.343  0.00  0.00    +0.000 NA
ATOM     13  C   UNL     1       0.359   4.393  -1.507  0.00  0.00    +0.000 A 
ATOM     14  H   UNL     1       1.859   2.061  -1.741  0.00  0.00    +0.000 HD
ENDROOT
BRANCH   1  16
ATOM     15  N   UNL     1       1.339   1.948  -0.123  0.00  0.00    +0.000 N 
ATOM     16  C   UNL     1       1.694   2.203  -1.526  0.00  0.00    +0.000 C 
ATOM     17  O   UNL     1       2.425   1.377  -2.158  0.00  0.00    +0.000 OA
ATOM     18  H   UNL     1       1.679   1.107   0.344  0.00  0.00    +0.000 HD
BRANCH  15  19
ATOM     19  C   UNL     1       0.494   2.904   0.607  0.00  0.00    +0.000 C 
BRANCH  19  20
ATOM     20  C   UNL     1      -0.773   2.205   1.075  0.00  0.00    +0.000 C 
BRANCH  20  30
ATOM     21  C   UNL     1       0.929   0.002   0.070  0.00  0.00    +0.000 C 
ATOM     22  C   UNL     1       0.422  -0.022   1.503  0.00  0.00    +0.000 A 
ATOM     23  N   UNL     1       0.759  -1.081   2.344  0.00  0.00    +0.000 N 
ATOM     24  C   UNL     1       1.560  -2.118   1.871  0.00  0.00    +0.000 A 
ATOM     25  C   UNL     1       2.040  -2.095   0.513  0.00  0.00    +0.000 A 
ATOM     26  C   UNL     1       1.692  -1.001  -0.356  0.00  0.00    +0.000 A 
ATOM     27  C   UNL     1       2.172  -0.978  -1.713  0.00  0.00    +0.000 A 
ATOM     28  C   UNL     1       1.824   0.116  -2.582  0.00  0.00    +0.000 A 
ATOM     29  C   UNL     1       1.907  -3.212   2.740  0.00  0.00    +0.000 A 
ATOM     30  C   UNL     1      -0.406   1.050   1.992  0.00  0.00    +0.000 A 
ATOM     31  H   UNL     1       0.419  -1.096   3.305  0.00  0.00    +0.000 HD
ENDBRANCH  20  30
ENDBRANCH  19  20
ENDBRANCH  15  19
ENDBRANCH   1  16
BRANCH  10  32
ATOM     32  C   UNL     1       4.780   0.067  -6.451  0.00  0.00    +0.000 C 
ATOM     33  C   UNL     1       3.260   0.067  -6.451  0.00  0.00    +0.000 C 
ATOM     34  C   UNL     1       5.287   1.296  -5.715  0.00  0.00    +0.000 C 
ATOM     35  C   UNL     1       5.287   0.091  -7.884  0.00  0.00    +0.000 C 
ENDBRANCH  10  32
TORSDOF 5
