REMARK  Name = 
REMARK  13 active torsions:
REMARK  status: ('A' for Active; 'I' for Inactive)
REMARK    1  A    between atoms: C_1  and  O_2
REMARK    2  A    between atoms: O_2  and  C_3
REMARK    3  A    between atoms: C_3  and  C_5
REMARK    4  A    between atoms: C_5  and  O_6
REMARK    5  A    between atoms: C_8  and  O_9
REMARK    6  A    between atoms: C_10  and  O_11
REMARK    7  A    between atoms: C_12  and  O_13
REMARK    8  A    between atoms: O_13  and  C_14
REMARK    9  A    between atoms: C_14  and  C_16
REMARK   10  A    between atoms: C_17  and  C_18
REMARK   11  A    between atoms: C_21  and  O_22
REMARK   12  A    between atoms: C_23  and  O_24
REMARK   13  A    between atoms: O_24  and  C_25
REMARK                            x       y       z     vdW  Elec       q    Type
REMARK                         _______ _______ _______ _____ _____    ______ ____
ROOT
ATOM      1  C   UNL     1       0.444   3.509  -1.410  0.00  0.00    +0.000 C 
ATOM      2  C   UNL     1       0.951   4.832  -0.858  0.00  0.00    +0.000 C 
ATOM      3  C   UNL     1       0.444   5.014   0.563  0.00  0.00    +0.000 C 
ATOM      4  C   UNL     1       0.951   6.337   1.116  0.00  0.00    +0.000 C 
ATOM      5  C   UNL     1       0.444   6.520   2.537  0.00  0.00    +0.000 C 
ATOM      6  C   UNL     1       0.951   3.326  -2.832  0.00  0.00    +0.000 C 
ENDROOT
BRANCH   1   7
ATOM      7  C   UNL     1      -1.076   3.509  -1.410  0.00  0.00    +0.000 C 
ATOM      8  O   UNL     1      -1.711   2.732  -0.631  0.00  0.00    +0.000 OA
BRANCH   7  10
ATOM      9  C   UNL     1      -3.206   4.377  -2.281  0.00  0.00    +0.000 C 
ATOM     10  O   UNL     1      -1.786   4.377  -2.281  0.00  0.00    +0.000 OA
ENDBRANCH   7  10
ENDBRANCH   1   7
BRANCH   1  11
ATOM     11  O   UNL     1       0.918   2.445  -0.598  0.00  0.00    +0.000 OA
ATOM     12  H   UNL     1       1.550   3.210  -0.720  0.00  0.00    +0.000 HD
ENDBRANCH   1  11
BRANCH   3  13
ATOM     13  O   UNL     1       0.918   3.950   1.375  0.00  0.00    +0.000 OA
ATOM     14  H   UNL     1       0.584   3.080   1.012  0.00  0.00    +0.000 HD
ENDBRANCH   3  13
BRANCH   4  15
ATOM     15  O   UNL     1       0.478   7.401   0.304  0.00  0.00    +0.000 OA
ATOM     16  H   UNL     1       0.811   7.281  -0.631  0.00  0.00    +0.000 HD
ENDBRANCH   4  15
BRANCH   5  17
ATOM     17  O   UNL     1       0.918   7.755   3.053  0.00  0.00    +0.000 OA
BRANCH  17  18
ATOM     18  C   UNL     1       2.314   7.994   3.153  0.00  0.00    +0.000 C 
ATOM     19  O   UNL     1       3.140   7.103   2.781  0.00  0.00    +0.000 OA
BRANCH  18  20
ATOM     20  C   UNL     1       2.820   9.317   3.706  0.00  0.00    +0.000 C 
ATOM     21  C   UNL     1       1.936  10.271   4.104  0.00  0.00    +0.000 C 
BRANCH  21  22
ATOM     22  C   UNL     1       2.443  11.593   4.656  0.00  0.00    +0.000 A 
ATOM     23  C   UNL     1       3.859  11.836   4.758  0.00  0.00    +0.000 A 
ATOM     24  C   UNL     1       4.795  10.826   4.336  0.00  0.00    +0.000 A 
ATOM     25  C   UNL     1       6.211  11.069   4.437  0.00  0.00    +0.000 A 
ATOM     26  C   UNL     1       6.691  12.322   4.961  0.00  0.00    +0.000 A 
ATOM     27  C   UNL     1       1.507  12.603   5.078  0.00  0.00    +0.000 A 
BRANCH  25  28
ATOM     28  O   UNL     1       7.134  10.073   4.021  0.00  0.00    +0.000 OA
ATOM     29  H   UNL     1       6.800   9.203   3.658  0.00  0.00    +0.000 HD
ENDBRANCH  25  28
BRANCH  26  30
ATOM     30  O   UNL     1       8.087  12.561   5.061  0.00  0.00    +0.000 OA
ATOM     31  C   UNL     1       8.560  13.796   5.577  0.00  0.00    +0.000 C 
ENDBRANCH  26  30
ENDBRANCH  21  22
ENDBRANCH  18  20
ENDBRANCH  17  18
ENDBRANCH   5  17
TORSDOF 11
