REMARK  Name = 
REMARK  9 active torsions:
REMARK  status: ('A' for Active; 'I' for Inactive)
REMARK    1  A    between atoms: C_1  and  O_2
REMARK    2  A    between atoms: O_2  and  C_3
REMARK    3  A    between atoms: C_9  and  C_10
REMARK    4  A    between atoms: C_10  and  C_11
REMARK    5  A    between atoms: N_13  and  C_14
REMARK    6  A    between atoms: C_17  and  S_18
REMARK    7  A    between atoms: S_18  and  N_19
REMARK    8  A    between atoms: C_24  and  C_25
REMARK    9  A    between atoms: C_27  and  C_29
REMARK                            x       y       z     vdW  Elec       q    Type
REMARK                         _______ _______ _______ _____ _____    ______ ____
ROOT
ATOM      1  C   UNL     1       0.894  -1.886   1.679  0.00  0.00    +0.000 A 
ATOM      2  C   UNL     1       0.414  -2.442   2.918  0.00  0.00    +0.000 A 
ATOM      3  C   UNL     1      -0.414  -1.650   3.790  0.00  0.00    +0.000 A 
ATOM      4  C   UNL     1      -0.894  -2.207   5.029  0.00  0.00    +0.000 A 
ATOM      5  C   UNL     1      -0.546  -3.555   5.395  0.00  0.00    +0.000 A 
ATOM      6  C   UNL     1       1.722  -2.678   0.807  0.00  0.00    +0.000 A 
ATOM      7  C   UNL     1      -1.026  -4.112   6.633  0.00  0.00    +0.000 A 
ATOM      8  C   UNL     1      -0.678  -5.460   7.000  0.00  0.00    +0.000 A 
ATOM      9  C   UNL     1      -1.185  -6.048   8.307  0.00  0.00    +0.000 C 
ATOM     10  N   UNL     1      -1.695  -1.440   5.872  0.00  0.00    +0.000 N 
ATOM     11  C   UNL     1      -2.050  -0.064   5.498  0.00  0.00    +0.000 C 
ATOM     12  O   UNL     1      -1.626   0.427   4.405  0.00  0.00    +0.000 OA
ENDROOT
BRANCH  11  13
ATOM     13  C   UNL     1      -2.924   0.772   6.419  0.00  0.00    +0.000 A 
ATOM     14  C   UNL     1      -3.272   2.121   6.053  0.00  0.00    +0.000 A 
ATOM     15  C   UNL     1      -2.792   2.678   4.814  0.00  0.00    +0.000 A 
ATOM     16  C   UNL     1      -3.139   4.026   4.448  0.00  0.00    +0.000 A 
ATOM     17 CL   UNL     1      -2.546   4.714   2.917  0.00  0.00    +0.000 Cl
ATOM     18  C   UNL     1      -3.967   4.819   5.320  0.00  0.00    +0.000 A 
ATOM     19  C   UNL     1      -3.404   0.216   7.657  0.00  0.00    +0.000 A 
ENDBRANCH  11  13
BRANCH   1  21
ATOM     20  C   UNL     1       1.024  -0.008   0.097  0.00  0.00    +0.000 C 
ATOM     21  O   UNL     1       0.551  -0.556   1.318  0.00  0.00    +0.000 OA
ENDBRANCH   1  21
BRANCH   7  22
ATOM     22  C   UNL     1      -1.900  -3.275   7.554  0.00  0.00    +0.000 C 
BRANCH  22  23
ATOM     23  C   UNL     1      -3.243  -3.963   7.741  0.00  0.00    +0.000 C 
ATOM     24  O   UNL     1      -3.622  -4.311   8.903  0.00  0.00    +0.000 OA
ATOM     25  N   UNL     1      -4.102  -4.226   6.578  0.00  0.00    +0.000 N 
ATOM     26  H   UNL     1      -5.003  -4.687   6.703  0.00  0.00    +0.000 HD
BRANCH  25  27
ATOM     27  C   UNL     1      -3.663  -3.824   5.234  0.00  0.00    +0.000 A 
ATOM     28  C   UNL     1      -2.391  -3.172   5.057  0.00  0.00    +0.000 A 
ATOM     29  C   UNL     1      -1.549  -2.915   6.196  0.00  0.00    +0.000 A 
ATOM     30  C   UNL     1      -0.277  -2.263   6.019  0.00  0.00    +0.000 A 
ATOM     31  C   UNL     1       0.153  -1.869   4.703  0.00  0.00    +0.000 A 
ATOM     32  C   UNL     1      -4.505  -4.081   4.094  0.00  0.00    +0.000 A 
BRANCH  30  33
ATOM     33  S   UNL     1       0.781  -1.939   7.452  0.00  0.00    +0.000 S 
ATOM     34  O   UNL     1       1.024  -0.433   7.577  0.00  0.00    +0.000 OA
ATOM     35  O   UNL     1       0.095  -2.453   8.719  0.00  0.00    +0.000 OA
BRANCH  33  36
ATOM     36  N   UNL     1       2.321  -2.766   7.242  0.00  0.00    +0.000 NA
ATOM     37  H   UNL     1       2.917  -2.583   8.050  0.00  0.00    +0.000 HD
ATOM     38  H   UNL     1       2.160  -3.769   7.159  0.00  0.00    +0.000 HD
ENDBRANCH  33  36
ENDBRANCH  30  33
ENDBRANCH  25  27
ENDBRANCH  22  23
ENDBRANCH   7  22
TORSDOF 7
