REMARK  Name = 
REMARK  8 active torsions:
REMARK  status: ('A' for Active; 'I' for Inactive)
REMARK    1  A    between atoms: C_1  and  C_2
REMARK    2  A    between atoms: C_2  and  C_3
REMARK    3  A    between atoms: C_2  and  C_10
REMARK    4  A    between atoms: C_3  and  N_4
REMARK    5  A    between atoms: C_13  and  O_14
REMARK    6  A    between atoms: O_14  and  C_15
REMARK    7  A    between atoms: C_18  and  O_19
REMARK    8  A    between atoms: O_19  and  C_20
REMARK                            x       y       z     vdW  Elec       q    Type
REMARK                         _______ _______ _______ _____ _____    ______ ____
ROOT
ATOM      1  C   UNL     1      -1.054   0.267  -1.359  0.00  0.00    +0.000 A 
ATOM      2  C   UNL     1      -1.774  -0.935  -1.026  0.00  0.00    +0.000 A 
ATOM      3  C   UNL     1      -1.054  -2.137  -0.693  0.00  0.00    +0.000 A 
ATOM      4  C   UNL     1      -1.774  -3.339  -0.360  0.00  0.00    +0.000 A 
ATOM      5  C   UNL     1      -3.214  -3.339  -0.360  0.00  0.00    +0.000 A 
ATOM      6  C   UNL     1      -1.774   1.469  -1.692  0.00  0.00    +0.000 A 
ENDROOT
BRANCH   1   8
ATOM      7  C   UNL     1       0.973  -0.092   0.028  0.00  0.00    +0.000 C 
ATOM      8  C   UNL     1       0.466   0.267  -1.359  0.00  0.00    +0.000 C 
BRANCH   8   9
ATOM      9  C   UNL     1       0.973  -0.755  -2.364  0.00  0.00    +0.000 C 
BRANCH   9  10
ATOM     10  N   UNL     1       0.483  -2.090  -1.994  0.00  0.00    +0.000 N 
ATOM     11  C   UNL     1       0.819  -2.638  -0.758  0.00  0.00    +0.000 A 
ATOM     12  C   UNL     1       1.647  -1.896   0.157  0.00  0.00    +0.000 A 
ATOM     13  N   UNL     1       1.984  -2.443   1.393  0.00  0.00    +0.000 N 
ATOM     14  C   UNL     1      -0.318  -2.808  -2.879  0.00  0.00    +0.000 A 
ATOM     15  O   UNL     1      -0.625  -2.309  -4.006  0.00  0.00    +0.000 OA
ATOM     16  H   UNL     1       1.644  -3.370   1.650  0.00  0.00    +0.000 HD
ENDBRANCH   9  10
ENDBRANCH   8   9
ENDBRANCH   1   8
BRANCH   4  17
ATOM     17  O   UNL     1      -1.064  -4.524  -0.031  0.00  0.00    +0.000 OA
BRANCH  17  18
ATOM     18  C   UNL     1       0.356  -4.524  -0.031  0.00  0.00    +0.000 C 
ATOM     19  F   UNL     1       0.799  -4.210  -1.245  0.00  0.00    +0.000 F 
ATOM     20  F   UNL     1       0.799  -3.630   0.848  0.00  0.00    +0.000 F 
ENDBRANCH  17  18
ENDBRANCH   4  17
BRANCH   5  21
ATOM     21  O   UNL     1      -3.924  -4.524  -0.031  0.00  0.00    +0.000 OA
BRANCH  21  22
ATOM     22  C   UNL     1      -5.344  -4.524  -0.031  0.00  0.00    +0.000 C 
ATOM     23  C   UNL     1      -5.851  -4.165  -1.419  0.00  0.00    +0.000 C 
ATOM     24  C   UNL     1      -5.344  -5.187  -2.423  0.00  0.00    +0.000 C 
ATOM     25  C   UNL     1      -5.851  -6.568  -2.041  0.00  0.00    +0.000 C 
ATOM     26  C   UNL     1      -5.851  -3.502   0.973  0.00  0.00    +0.000 C 
ENDBRANCH  21  22
ENDBRANCH   5  21
TORSDOF 7
