REMARK  Name = 
REMARK  7 active torsions:
REMARK  status: ('A' for Active; 'I' for Inactive)
REMARK    1  A    between atoms: C_1  and  O_2
REMARK    2  A    between atoms: O_2  and  C_3
REMARK    3  A    between atoms: C_7  and  O_8
REMARK    4  A    between atoms: C_9  and  C_10
REMARK    5  A    between atoms: C_12  and  C_13
REMARK    6  A    between atoms: C_19  and  C_20
REMARK    7  A    between atoms: C_22  and  N_23
REMARK                            x       y       z     vdW  Elec       q    Type
REMARK                         _______ _______ _______ _____ _____    ______ ____
ROOT
ATOM      1  C   UNL     1       2.257   1.075  -1.940  0.00  0.00    +0.000 A 
ATOM      2  C   UNL     1       3.085   2.121  -2.484  0.00  0.00    +0.000 A 
ATOM      3  C   UNL     1       3.433   2.110  -3.882  0.00  0.00    +0.000 A 
ATOM      4  C   UNL     1       2.953   1.054  -4.735  0.00  0.00    +0.000 A 
ATOM      5  C   UNL     1       3.301   1.044  -6.133  0.00  0.00    +0.000 A 
ATOM      6  N   UNL     1       1.921   1.085  -0.589  0.00  0.00    +0.000 NA
ENDROOT
BRANCH   3   7
ATOM      7  C   UNL     1       4.307   3.214  -4.455  0.00  0.00    +0.000 C 
ATOM      8  C   UNL     1       3.547   3.944  -5.551  0.00  0.00    +0.000 C 
ATOM      9  C   UNL     1       2.280   4.551  -4.970  0.00  0.00    +0.000 C 
ATOM     10  C   UNL     1       2.648   5.531  -3.868  0.00  0.00    +0.000 C 
ATOM     11  N   UNL     1       3.493   6.599  -4.423  0.00  0.00    +0.000 NA
ATOM     12  C   UNL     1       5.574   2.606  -5.036  0.00  0.00    +0.000 C 
ATOM     13  H   UNL     1       4.343   6.191  -4.813  0.00  0.00    +0.000 HD
ENDBRANCH   3   7
BRANCH   1  19
ATOM     14  C   UNL     1       0.923  -1.085  -2.298  0.00  0.00    +0.000 A 
ATOM     15  C   UNL     1       0.443  -2.140  -3.152  0.00  0.00    +0.000 A 
ATOM     16  C   UNL     1      -0.385  -3.186  -2.608  0.00  0.00    +0.000 A 
ATOM     17  C   UNL     1      -0.866  -4.242  -3.462  0.00  0.00    +0.000 A 
ATOM     18  C   UNL     1      -1.694  -5.287  -2.918  0.00  0.00    +0.000 A 
ATOM     19  C   UNL     1       1.751  -0.039  -2.841  0.00  0.00    +0.000 A 
BRANCH  14  21
ATOM     20  C   UNL     1       1.053  -0.033  -0.078  0.00  0.00    +0.000 C 
ATOM     21  O   UNL     1       0.580  -1.074  -0.920  0.00  0.00    +0.000 OA
ENDBRANCH  14  21
BRANCH  18  22
ATOM     22  O   UNL     1      -2.037  -5.277  -1.540  0.00  0.00    +0.000 OA
ATOM     23  H   UNL     1      -2.611  -6.003  -1.162  0.00  0.00    +0.000 HD
ENDBRANCH  18  22
ENDBRANCH   1  19
BRANCH   5  24
ATOM     24  N   UNL     1       2.811  -0.034  -7.004  0.00  0.00    +0.000 N 
ATOM     25  H   UNL     1       2.225  -0.774  -6.619  0.00  0.00    +0.000 HD
ATOM     26  H   UNL     1       3.057  -0.041  -7.994  0.00  0.00    +0.000 HD
ENDBRANCH   5  24
BRANCH   4  27
ATOM     27  C   UNL     1       2.079  -0.049  -4.162  0.00  0.00    +0.000 C 
ATOM     28  N   UNL     1       1.354  -0.964  -3.685  0.00  0.00    +0.000 NA
ENDBRANCH   4  27
TORSDOF 6
