REMARK  Name = 
REMARK  7 active torsions:
REMARK  status: ('A' for Active; 'I' for Inactive)
REMARK    1  A    between atoms: C_1  and  O_2
REMARK    2  A    between atoms: O_2  and  C_3
REMARK    3  A    between atoms: C_8  and  C_9
REMARK    4  A    between atoms: C_10  and  C_11
REMARK    5  A    between atoms: C_10  and  C_13
REMARK    6  A    between atoms: C_13  and  C_15
REMARK    7  A    between atoms: N_19  and  C_20
REMARK                            x       y       z     vdW  Elec       q    Type
REMARK                         _______ _______ _______ _____ _____    ______ ____
ROOT
ATOM      1  C   UNL     1       2.197  -1.826  -1.267  0.00  0.00    +0.000 C 
ATOM      2  C   UNL     1       1.869  -0.513  -1.136  0.00  0.00    +0.000 C 
ENDROOT
BRANCH   1   8
ATOM      3  C   UNL     1       0.863  -2.413   0.842  0.00  0.00    +0.000 A 
ATOM      4  C   UNL     1       0.383  -3.375   1.800  0.00  0.00    +0.000 A 
ATOM      5  C   UNL     1      -0.445  -2.947   2.898  0.00  0.00    +0.000 A 
ATOM      6  C   UNL     1      -0.925  -3.909   3.856  0.00  0.00    +0.000 A 
ATOM      7  C   UNL     1      -1.753  -3.480   4.954  0.00  0.00    +0.000 A 
ATOM      8  C   UNL     1       1.691  -2.842  -0.256  0.00  0.00    +0.000 A 
BRANCH   3  10
ATOM      9  C   UNL     1       0.993  -0.094   0.034  0.00  0.00    +0.000 C 
ATOM     10  O   UNL     1       0.520  -1.042   0.979  0.00  0.00    +0.000 OA
ENDBRANCH   3  10
ENDBRANCH   1   8
BRANCH   2  11
ATOM     11  C   UNL     1       0.995  -0.061   0.023  0.00  0.00    +0.000 C 
ATOM     12  N   UNL     1       0.270   0.315   0.984  0.00  0.00    +0.000 NA
ENDBRANCH   2  11
BRANCH   2  13
ATOM     13  C   UNL     1       2.376   0.502  -2.147  0.00  0.00    +0.000 C 
ATOM     14  O   UNL     1       3.106   0.124  -3.116  0.00  0.00    +0.000 OA
BRANCH  13  15
ATOM     15  C   UNL     1       2.008   1.970  -2.000  0.00  0.00    +0.000 A 
ATOM     16  C   UNL     1       2.488   2.932  -2.958  0.00  0.00    +0.000 A 
ATOM     17  C   UNL     1       3.316   2.503  -4.056  0.00  0.00    +0.000 A 
ATOM     18  C   UNL     1       3.796   3.465  -5.014  0.00  0.00    +0.000 A 
ATOM     19  N   UNL     1       1.208   2.384  -0.938  0.00  0.00    +0.000 N 
ATOM     20  C   UNL     1       0.718   1.403   0.040  0.00  0.00    +0.000 C 
ENDBRANCH  13  15
ENDBRANCH   2  13
TORSDOF 5
