MODEL 1
REMARK VINA RESULT:    -6.592      0.000      0.000
REMARK INTER + INTRA:          -4.477
REMARK INTER:                  -7.363
REMARK INTRA:                   2.886
REMARK UNBOUND:                 2.886
REMARK  Name = 
REMARK  2 active torsions:
REMARK  status: ('A' for Active; 'I' for Inactive)
REMARK    1  A    between atoms: N_3  and  C_4
REMARK    2  A    between atoms: C_4  and  C_5
REMARK                            x       y       z     vdW  Elec       q    Type
REMARK                         _______ _______ _______ _____ _____    ______ ____
ROOT
ATOM      1  O   UNL     1      40.507  12.608  40.898  0.00  0.00    +0.000 OA
ATOM      2  C   UNL     1      40.141  12.377  42.092  0.00  0.00    +0.000 C 
ATOM      3  N   UNL     1      38.723  12.133  42.392  0.00  0.00    +0.000 N 
ATOM      4  N   UNL     1      41.135  12.354  43.175  0.00  0.00    +0.000 N 
ATOM      5  C   UNL     1      40.712  12.087  44.557  0.00  0.00    +0.000 C 
ATOM      6  C   UNL     1      39.715  13.147  44.996  0.00  0.00    +0.000 C 
ATOM      7  N   UNL     1      38.544  13.116  44.109  0.00  0.00    +0.000 N 
ATOM      8  C   UNL     1      37.210  12.845  44.664  0.00  0.00    +0.000 A 
ATOM      9  C   UNL     1      37.051  12.611  46.076  0.00  0.00    +0.000 A 
ATOM     10  C   UNL     1      38.199  12.641  46.944  0.00  0.00    +0.000 A 
ATOM     11  C   UNL     1      38.041  12.406  48.357  0.00  0.00    +0.000 A 
ATOM     12  C   UNL     1      39.189  12.437  49.225  0.00  0.00    +0.000 A 
ATOM     13  N   UNL     1      36.099  12.815  43.824  0.00  0.00    +0.000 NA
ATOM     14  C   UNL     1      38.706  13.356  42.667  0.00  0.00    +0.000 C 
ATOM     15  C   UNL     1      42.554  12.598  42.875  0.00  0.00    +0.000 C 
ATOM     16  H   UNL     1      38.033  12.149  41.641  0.00  0.00    +0.000 HD
ENDROOT
BRANCH   3  17
ATOM     17  C   UNL     1      38.300  11.865  43.774  0.00  0.00    +0.000 C 
BRANCH  17  18
ATOM     18  C   UNL     1      37.876  10.411  43.902  0.00  0.00    +0.000 A 
ATOM     19  C   UNL     1      38.494   9.565  44.890  0.00  0.00    +0.000 A 
ATOM     20  C   UNL     1      39.514  10.097  45.756  0.00  0.00    +0.000 A 
ATOM     21  C   UNL     1      40.134   9.250  46.744  0.00  0.00    +0.000 A 
ATOM     22 CL   UNL     1      41.394   9.908  47.815  0.00  0.00    +0.000 Cl
ATOM     23  C   UNL     1      39.732   7.873  46.865  0.00  0.00    +0.000 A 
ATOM     24  C   UNL     1      36.856   9.879  43.036  0.00  0.00    +0.000 A 
ATOM     25 CL   UNL     1      36.091  10.925  41.815  0.00  0.00    +0.000 Cl
ENDBRANCH  17  18
ENDBRANCH   3  17
TORSDOF 2
ENDMDL
MODEL 2
REMARK VINA RESULT:    -6.425     26.314     28.755
REMARK INTER + INTRA:          -4.290
REMARK INTER:                  -7.129
REMARK INTRA:                   2.839
REMARK UNBOUND:                 2.886
REMARK  Name = 
REMARK  2 active torsions:
REMARK  status: ('A' for Active; 'I' for Inactive)
REMARK    1  A    between atoms: N_3  and  C_4
REMARK    2  A    between atoms: C_4  and  C_5
REMARK                            x       y       z     vdW  Elec       q    Type
REMARK                         _______ _______ _______ _____ _____    ______ ____
ROOT
ATOM      1  O   UNL     1      27.072  -9.444  23.910  0.00  0.00    +0.000 OA
ATOM      2  C   UNL     1      27.936  -9.273  24.827  0.00  0.00    +0.000 C 
ATOM      3  N   UNL     1      27.503  -9.114  26.223  0.00  0.00    +0.000 N 
ATOM      4  N   UNL     1      29.366  -9.234  24.492  0.00  0.00    +0.000 N 
ATOM      5  C   UNL     1      30.364  -9.036  25.553  0.00  0.00    +0.000 C 
ATOM      6  C   UNL     1      30.113  -7.706  26.244  0.00  0.00    +0.000 C 
ATOM      7  N   UNL     1      28.766  -7.706  26.832  0.00  0.00    +0.000 N 
ATOM      8  C   UNL     1      28.597  -7.525  28.281  0.00  0.00    +0.000 A 
ATOM      9  C   UNL     1      29.751  -7.346  29.124  0.00  0.00    +0.000 A 
ATOM     10  C   UNL     1      31.071  -7.347  28.547  0.00  0.00    +0.000 A 
ATOM     11  C   UNL     1      32.225  -7.168  29.390  0.00  0.00    +0.000 A 
ATOM     12  C   UNL     1      33.544  -7.167  28.814  0.00  0.00    +0.000 A 
ATOM     13  N   UNL     1      27.321  -7.525  28.839  0.00  0.00    +0.000 NA
ATOM     14  C   UNL     1      27.588  -7.888  25.972  0.00  0.00    +0.000 C 
ATOM     15  C   UNL     1      29.799  -9.393  23.096  0.00  0.00    +0.000 C 
ATOM     16  H   UNL     1      26.510  -9.140  26.455  0.00  0.00    +0.000 HD
ENDROOT
BRANCH   3  17
ATOM     17  C   UNL     1      28.502  -8.916  27.283  0.00  0.00    +0.000 C 
BRANCH  17  18
ATOM     18  C   UNL     1      28.540 -10.144  28.179  0.00  0.00    +0.000 A 
ATOM     19  C   UNL     1      29.786 -10.827  28.412  0.00  0.00    +0.000 A 
ATOM     20  C   UNL     1      30.995 -10.347  27.796  0.00  0.00    +0.000 A 
ATOM     21  C   UNL     1      32.242 -11.030  28.028  0.00  0.00    +0.000 A 
ATOM     22 CL   UNL     1      33.738 -10.437  27.267  0.00  0.00    +0.000 Cl
ATOM     23  C   UNL     1      32.278 -12.193  28.876  0.00  0.00    +0.000 A 
ATOM     24  C   UNL     1      27.330 -10.624  28.795  0.00  0.00    +0.000 A 
ATOM     25 CL   UNL     1      25.789  -9.779  28.508  0.00  0.00    +0.000 Cl
ENDBRANCH  17  18
ENDBRANCH   3  17
TORSDOF 2
ENDMDL
MODEL 3
REMARK VINA RESULT:    -6.373     32.802     35.291
REMARK INTER + INTRA:          -4.232
REMARK INTER:                  -7.197
REMARK INTRA:                   2.965
REMARK UNBOUND:                 2.886
REMARK  Name = 
REMARK  2 active torsions:
REMARK  status: ('A' for Active; 'I' for Inactive)
REMARK    1  A    between atoms: N_3  and  C_4
REMARK    2  A    between atoms: C_4  and  C_5
REMARK                            x       y       z     vdW  Elec       q    Type
REMARK                         _______ _______ _______ _____ _____    ______ ____
ROOT
ATOM      1  O   UNL     1      13.257   1.432  21.772  0.00  0.00    +0.000 OA
ATOM      2  C   UNL     1      12.664   1.183  22.868  0.00  0.00    +0.000 C 
ATOM      3  N   UNL     1      13.360   0.438  23.927  0.00  0.00    +0.000 N 
ATOM      4  N   UNL     1      11.283   1.640  23.077  0.00  0.00    +0.000 N 
ATOM      5  C   UNL     1      10.598   1.352  24.345  0.00  0.00    +0.000 C 
ATOM      6  C   UNL     1      10.522  -0.152  24.551  0.00  0.00    +0.000 C 
ATOM      7  N   UNL     1      11.881  -0.711  24.590  0.00  0.00    +0.000 N 
ATOM      8  C   UNL     1      12.346  -1.425  25.787  0.00  0.00    +0.000 A 
ATOM      9  C   UNL     1      11.471  -1.579  26.920  0.00  0.00    +0.000 A 
ATOM     10  C   UNL     1      10.140  -1.031  26.882  0.00  0.00    +0.000 A 
ATOM     11  C   UNL     1       9.265  -1.184  28.015  0.00  0.00    +0.000 A 
ATOM     12  C   UNL     1       7.934  -0.637  27.976  0.00  0.00    +0.000 A 
ATOM     13  N   UNL     1      13.634  -1.955  25.825  0.00  0.00    +0.000 NA
ATOM     14  C   UNL     1      12.774  -0.554  23.433  0.00  0.00    +0.000 C 
ATOM     15  C   UNL     1      10.587   2.386  22.018  0.00  0.00    +0.000 C 
ATOM     16  H   UNL     1      14.319   0.120  23.782  0.00  0.00    +0.000 HD
ENDROOT
BRANCH   3  17
ATOM     17  C   UNL     1      12.674   0.150  25.195  0.00  0.00    +0.000 C 
BRANCH  17  18
ATOM     18  C   UNL     1      13.334   0.935  26.318  0.00  0.00    +0.000 A 
ATOM     19  C   UNL     1      12.552   1.840  27.119  0.00  0.00    +0.000 A 
ATOM     20  C   UNL     1      11.145   2.002  26.857  0.00  0.00    +0.000 A 
ATOM     21  C   UNL     1      10.362   2.907  27.658  0.00  0.00    +0.000 A 
ATOM     22 CL   UNL     1       8.623   3.106  27.334  0.00  0.00    +0.000 Cl
ATOM     23  C   UNL     1      10.986   3.651  28.721  0.00  0.00    +0.000 A 
ATOM     24  C   UNL     1      14.740   0.774  26.580  0.00  0.00    +0.000 A 
ATOM     25 CL   UNL     1      15.708  -0.345  25.589  0.00  0.00    +0.000 Cl
ENDBRANCH  17  18
ENDBRANCH   3  17
TORSDOF 2
ENDMDL
MODEL 4
REMARK VINA RESULT:    -6.368     26.245     28.453
REMARK INTER + INTRA:          -4.227
REMARK INTER:                  -7.050
REMARK INTRA:                   2.823
REMARK UNBOUND:                 2.886
REMARK  Name = 
REMARK  2 active torsions:
REMARK  status: ('A' for Active; 'I' for Inactive)
REMARK    1  A    between atoms: N_3  and  C_4
REMARK    2  A    between atoms: C_4  and  C_5
REMARK                            x       y       z     vdW  Elec       q    Type
REMARK                         _______ _______ _______ _____ _____    ______ ____
ROOT
ATOM      1  O   UNL     1      25.204  -9.004  26.945  0.00  0.00    +0.000 OA
ATOM      2  C   UNL     1      26.417  -8.973  27.324  0.00  0.00    +0.000 C 
ATOM      3  N   UNL     1      26.787  -9.503  28.644  0.00  0.00    +0.000 N 
ATOM      4  N   UNL     1      27.448  -8.406  26.444  0.00  0.00    +0.000 N 
ATOM      5  C   UNL     1      28.851  -8.371  26.882  0.00  0.00    +0.000 C 
ATOM      6  C   UNL     1      28.963  -7.548  28.155  0.00  0.00    +0.000 C 
ATOM      7  N   UNL     1      28.136  -8.157  29.207  0.00  0.00    +0.000 N 
ATOM      8  C   UNL     1      28.757  -8.615  30.457  0.00  0.00    +0.000 A 
ATOM      9  C   UNL     1      30.176  -8.467  30.653  0.00  0.00    +0.000 A 
ATOM     10  C   UNL     1      30.986  -7.871  29.623  0.00  0.00    +0.000 A 
ATOM     11  C   UNL     1      32.406  -7.723  29.818  0.00  0.00    +0.000 A 
ATOM     12  C   UNL     1      33.216  -7.126  28.788  0.00  0.00    +0.000 A 
ATOM     13  N   UNL     1      27.973  -9.192  31.454  0.00  0.00    +0.000 NA
ATOM     14  C   UNL     1      26.686  -8.308  29.007  0.00  0.00    +0.000 C 
ATOM     15  C   UNL     1      27.077  -7.876  25.123  0.00  0.00    +0.000 C 
ATOM     16  H   UNL     1      26.071  -9.896  29.255  0.00  0.00    +0.000 HD
ENDROOT
BRANCH   3  17
ATOM     17  C   UNL     1      28.190  -9.468  29.082  0.00  0.00    +0.000 C 
BRANCH  17  18
ATOM     18  C   UNL     1      28.728 -10.887  29.176  0.00  0.00    +0.000 A 
ATOM     19  C   UNL     1      29.947 -11.240  28.495  0.00  0.00    +0.000 A 
ATOM     20  C   UNL     1      30.655 -10.251  27.726  0.00  0.00    +0.000 A 
ATOM     21  C   UNL     1      31.874 -10.604  27.044  0.00  0.00    +0.000 A 
ATOM     22 CL   UNL     1      32.750  -9.381  26.094  0.00  0.00    +0.000 Cl
ATOM     23  C   UNL     1      32.384 -11.948  27.133  0.00  0.00    +0.000 A 
ATOM     24  C   UNL     1      28.020 -11.876  29.945  0.00  0.00    +0.000 A 
ATOM     25 CL   UNL     1      26.513 -11.439  30.787  0.00  0.00    +0.000 Cl
ENDBRANCH  17  18
ENDBRANCH   3  17
TORSDOF 2
ENDMDL
MODEL 5
REMARK VINA RESULT:    -6.321     27.280     29.938
REMARK INTER + INTRA:          -4.174
REMARK INTER:                  -7.007
REMARK INTRA:                   2.834
REMARK UNBOUND:                 2.886
REMARK  Name = 
REMARK  2 active torsions:
REMARK  status: ('A' for Active; 'I' for Inactive)
REMARK    1  A    between atoms: N_3  and  C_4
REMARK    2  A    between atoms: C_4  and  C_5
REMARK                            x       y       z     vdW  Elec       q    Type
REMARK                         _______ _______ _______ _____ _____    ______ ____
ROOT
ATOM      1  O   UNL     1      18.613  -7.500  36.680  0.00  0.00    +0.000 OA
ATOM      2  C   UNL     1      19.560  -8.272  36.331  0.00  0.00    +0.000 C 
ATOM      3  N   UNL     1      19.330  -9.721  36.234  0.00  0.00    +0.000 N 
ATOM      4  N   UNL     1      20.886  -7.717  36.026  0.00  0.00    +0.000 N 
ATOM      5  C   UNL     1      21.982  -8.610  35.623  0.00  0.00    +0.000 C 
ATOM      6  C   UNL     1      22.251  -9.616  36.731  0.00  0.00    +0.000 C 
ATOM      7  N   UNL     1      21.038 -10.408  36.978  0.00  0.00    +0.000 N 
ATOM      8  C   UNL     1      21.067 -11.868  36.807  0.00  0.00    +0.000 A 
ATOM      9  C   UNL     1      22.284 -12.521  36.397  0.00  0.00    +0.000 A 
ATOM     10  C   UNL     1      23.471 -11.744  36.154  0.00  0.00    +0.000 A 
ATOM     11  C   UNL     1      24.688 -12.397  35.745  0.00  0.00    +0.000 A 
ATOM     12  C   UNL     1      25.876 -11.621  35.502  0.00  0.00    +0.000 A 
ATOM     13  N   UNL     1      19.918 -12.619  37.042  0.00  0.00    +0.000 NA
ATOM     14  C   UNL     1      19.796  -9.741  37.397  0.00  0.00    +0.000 C 
ATOM     15  C   UNL     1      21.117  -6.268  36.124  0.00  0.00    +0.000 C 
ATOM     16  H   UNL     1      18.409 -10.106  36.446  0.00  0.00    +0.000 HD
ENDROOT
BRANCH   3  17
ATOM     17  C   UNL     1      20.425 -10.614  35.830  0.00  0.00    +0.000 C 
BRANCH  17  18
ATOM     18  C   UNL     1      20.122 -11.202  34.461  0.00  0.00    +0.000 A 
ATOM     19  C   UNL     1      21.084 -11.081  33.397  0.00  0.00    +0.000 A 
ATOM     20  C   UNL     1      22.333 -10.404  33.629  0.00  0.00    +0.000 A 
ATOM     21  C   UNL     1      23.296 -10.282  32.564  0.00  0.00    +0.000 A 
ATOM     22 CL   UNL     1      24.840  -9.445  32.851  0.00  0.00    +0.000 Cl
ATOM     23  C   UNL     1      23.009 -10.839  31.268  0.00  0.00    +0.000 A 
ATOM     24  C   UNL     1      18.873 -11.879  34.229  0.00  0.00    +0.000 A 
ATOM     25 CL   UNL     1      17.683 -12.029  35.545  0.00  0.00    +0.000 Cl
ENDBRANCH  17  18
ENDBRANCH   3  17
TORSDOF 2
ENDMDL
MODEL 6
REMARK VINA RESULT:    -6.295     32.434     35.519
REMARK INTER + INTRA:          -4.145
REMARK INTER:                  -7.614
REMARK INTRA:                   3.468
REMARK UNBOUND:                 2.886
REMARK  Name = 
REMARK  2 active torsions:
REMARK  status: ('A' for Active; 'I' for Inactive)
REMARK    1  A    between atoms: N_3  and  C_4
REMARK    2  A    between atoms: C_4  and  C_5
REMARK                            x       y       z     vdW  Elec       q    Type
REMARK                         _______ _______ _______ _____ _____    ______ ____
ROOT
ATOM      1  O   UNL     1       9.499   1.909  27.659  0.00  0.00    +0.000 OA
ATOM      2  C   UNL     1       9.950   0.940  26.971  0.00  0.00    +0.000 C 
ATOM      3  N   UNL     1      11.305   1.008  26.406  0.00  0.00    +0.000 N 
ATOM      4  N   UNL     1       9.116  -0.248  26.739  0.00  0.00    +0.000 N 
ATOM      5  C   UNL     1       9.638  -1.369  25.943  0.00  0.00    +0.000 C 
ATOM      6  C   UNL     1       9.979  -0.882  24.545  0.00  0.00    +0.000 C 
ATOM      7  N   UNL     1      10.997   0.176  24.629  0.00  0.00    +0.000 N 
ATOM      8  C   UNL     1      12.297  -0.001  23.965  0.00  0.00    +0.000 A 
ATOM      9  C   UNL     1      12.572  -1.210  23.233  0.00  0.00    +0.000 A 
ATOM     10  C   UNL     1      11.576  -2.246  23.152  0.00  0.00    +0.000 A 
ATOM     11  C   UNL     1      11.852  -3.455  22.419  0.00  0.00    +0.000 A 
ATOM     12  C   UNL     1      10.855  -4.491  22.337  0.00  0.00    +0.000 A 
ATOM     13  N   UNL     1      13.261   1.000  24.045  0.00  0.00    +0.000 NA
ATOM     14  C   UNL     1      10.715   1.410  25.376  0.00  0.00    +0.000 C 
ATOM     15  C   UNL     1       7.760  -0.316  27.304  0.00  0.00    +0.000 C 
ATOM     16  H   UNL     1      11.884   1.833  26.566  0.00  0.00    +0.000 HD
ENDROOT
BRANCH   3  17
ATOM     17  C   UNL     1      11.827  -0.113  25.611  0.00  0.00    +0.000 C 
BRANCH  17  18
ATOM     18  C   UNL     1      12.931  -0.814  26.386  0.00  0.00    +0.000 A 
ATOM     19  C   UNL     1      14.025  -0.052  26.929  0.00  0.00    +0.000 A 
ATOM     20  C   UNL     1      14.073   1.374  26.739  0.00  0.00    +0.000 A 
ATOM     21  C   UNL     1      15.168   2.137  27.282  0.00  0.00    +0.000 A 
ATOM     22 CL   UNL     1      15.228   3.900  27.047  0.00  0.00    +0.000 Cl
ATOM     23  C   UNL     1      16.213   1.473  28.017  0.00  0.00    +0.000 A 
ATOM     24  C   UNL     1      12.883  -2.241  26.576  0.00  0.00    +0.000 A 
ATOM     25 CL   UNL     1      11.530  -3.183  25.904  0.00  0.00    +0.000 Cl
ENDBRANCH  17  18
ENDBRANCH   3  17
TORSDOF 2
ENDMDL
MODEL 7
REMARK VINA RESULT:    -6.147     25.848     28.245
REMARK INTER + INTRA:          -3.980
REMARK INTER:                  -7.459
REMARK INTRA:                   3.479
REMARK UNBOUND:                 2.886
REMARK  Name = 
REMARK  2 active torsions:
REMARK  status: ('A' for Active; 'I' for Inactive)
REMARK    1  A    between atoms: N_3  and  C_4
REMARK    2  A    between atoms: C_4  and  C_5
REMARK                            x       y       z     vdW  Elec       q    Type
REMARK                         _______ _______ _______ _____ _____    ______ ____
ROOT
ATOM      1  O   UNL     1      32.192  -8.963  31.449  0.00  0.00    +0.000 OA
ATOM      2  C   UNL     1      31.304  -8.964  30.540  0.00  0.00    +0.000 C 
ATOM      3  N   UNL     1      30.071  -9.744  30.718  0.00  0.00    +0.000 N 
ATOM      4  N   UNL     1      31.510  -8.185  29.310  0.00  0.00    +0.000 N 
ATOM      5  C   UNL     1      30.482  -8.187  28.259  0.00  0.00    +0.000 C 
ATOM      6  C   UNL     1      30.267  -9.607  27.762  0.00  0.00    +0.000 C 
ATOM      7  N   UNL     1      29.827 -10.455  28.878  0.00  0.00    +0.000 N 
ATOM      8  C   UNL     1      28.529 -11.140  28.813  0.00  0.00    +0.000 A 
ATOM      9  C   UNL     1      27.688 -10.981  27.654  0.00  0.00    +0.000 A 
ATOM     10  C   UNL     1      28.119 -10.149  26.561  0.00  0.00    +0.000 A 
ATOM     11  C   UNL     1      27.279  -9.989  25.402  0.00  0.00    +0.000 A 
ATOM     12  C   UNL     1      27.710  -9.158  24.308  0.00  0.00    +0.000 A 
ATOM     13  N   UNL     1      28.111 -11.945  29.870  0.00  0.00    +0.000 NA
ATOM     14  C   UNL     1      30.686 -10.618  30.061  0.00  0.00    +0.000 C 
ATOM     15  C   UNL     1      32.743  -7.404  29.133  0.00  0.00    +0.000 C 
ATOM     16  H   UNL     1      29.928 -10.286  31.571  0.00  0.00    +0.000 HD
ENDROOT
BRANCH   3  17
ATOM     17  C   UNL     1      29.044  -9.746  29.666  0.00  0.00    +0.000 C 
BRANCH  17  18
ATOM     18  C   UNL     1      27.822  -8.981  30.150  0.00  0.00    +0.000 A 
ATOM     19  C   UNL     1      27.228  -9.304  31.421  0.00  0.00    +0.000 A 
ATOM     20  C   UNL     1      27.790 -10.351  32.233  0.00  0.00    +0.000 A 
ATOM     21  C   UNL     1      27.195 -10.675  33.505  0.00  0.00    +0.000 A 
ATOM     22 CL   UNL     1      27.890 -11.969  34.509  0.00  0.00    +0.000 Cl
ATOM     23  C   UNL     1      26.038  -9.950  33.963  0.00  0.00    +0.000 A 
ATOM     24  C   UNL     1      27.260  -7.934  29.337  0.00  0.00    +0.000 A 
ATOM     25 CL   UNL     1      27.996  -7.534  27.766  0.00  0.00    +0.000 Cl
ENDBRANCH  17  18
ENDBRANCH   3  17
TORSDOF 2
ENDMDL
MODEL 8
REMARK VINA RESULT:    -6.033      2.755      4.964
REMARK INTER + INTRA:          -3.852
REMARK INTER:                  -6.713
REMARK INTRA:                   2.861
REMARK UNBOUND:                 2.886
REMARK  Name = 
REMARK  2 active torsions:
REMARK  status: ('A' for Active; 'I' for Inactive)
REMARK    1  A    between atoms: N_3  and  C_4
REMARK    2  A    between atoms: C_4  and  C_5
REMARK                            x       y       z     vdW  Elec       q    Type
REMARK                         _______ _______ _______ _____ _____    ______ ____
ROOT
ATOM      1  O   UNL     1      37.417  14.257  41.715  0.00  0.00    +0.000 OA
ATOM      2  C   UNL     1      38.378  13.779  42.396  0.00  0.00    +0.000 C 
ATOM      3  N   UNL     1      39.714  13.655  41.797  0.00  0.00    +0.000 N 
ATOM      4  N   UNL     1      38.152  13.350  43.784  0.00  0.00    +0.000 N 
ATOM      5  C   UNL     1      39.263  12.798  44.573  0.00  0.00    +0.000 C 
ATOM      6  C   UNL     1      39.802  11.553  43.887  0.00  0.00    +0.000 C 
ATOM      7  N   UNL     1      40.281  11.903  42.542  0.00  0.00    +0.000 N 
ATOM      8  C   UNL     1      41.688  11.677  42.182  0.00  0.00    +0.000 A 
ATOM      9  C   UNL     1      42.597  11.113  43.147  0.00  0.00    +0.000 A 
ATOM     10  C   UNL     1      42.127  10.772  44.465  0.00  0.00    +0.000 A 
ATOM     11  C   UNL     1      43.036  10.208  45.429  0.00  0.00    +0.000 A 
ATOM     12  C   UNL     1      42.566   9.865  46.747  0.00  0.00    +0.000 A 
ATOM     13  N   UNL     1      42.143  12.009  40.908  0.00  0.00    +0.000 NA
ATOM     14  C   UNL     1      39.353  12.478  41.557  0.00  0.00    +0.000 C 
ATOM     15  C   UNL     1      36.815  13.474  44.384  0.00  0.00    +0.000 C 
ATOM     16  H   UNL     1      39.870  13.952  40.833  0.00  0.00    +0.000 HD
ENDROOT
BRANCH   3  17
ATOM     17  C   UNL     1      40.825  13.102  42.585  0.00  0.00    +0.000 C 
BRANCH  17  18
ATOM     18  C   UNL     1      41.864  14.186  42.825  0.00  0.00    +0.000 A 
ATOM     19  C   UNL     1      42.332  14.453  44.160  0.00  0.00    +0.000 A 
ATOM     20  C   UNL     1      41.814  13.694  45.269  0.00  0.00    +0.000 A 
ATOM     21  C   UNL     1      42.281  13.961  46.605  0.00  0.00    +0.000 A 
ATOM     22 CL   UNL     1      41.642  13.023  47.976  0.00  0.00    +0.000 Cl
ATOM     23  C   UNL     1      43.266  14.987  46.832  0.00  0.00    +0.000 A 
ATOM     24  C   UNL     1      42.382  14.945  41.716  0.00  0.00    +0.000 A 
ATOM     25 CL   UNL     1      41.804  14.614  40.064  0.00  0.00    +0.000 Cl
ENDBRANCH  17  18
ENDBRANCH   3  17
TORSDOF 2
ENDMDL
MODEL 9
REMARK VINA RESULT:    -6.025      1.111      3.286
REMARK INTER + INTRA:          -3.843
REMARK INTER:                  -7.378
REMARK INTRA:                   3.534
REMARK UNBOUND:                 2.886
REMARK  Name = 
REMARK  2 active torsions:
REMARK  status: ('A' for Active; 'I' for Inactive)
REMARK    1  A    between atoms: N_3  and  C_4
REMARK    2  A    between atoms: C_4  and  C_5
REMARK                            x       y       z     vdW  Elec       q    Type
REMARK                         _______ _______ _______ _____ _____    ______ ____
ROOT
ATOM      1  O   UNL     1      40.932  12.158  41.785  0.00  0.00    +0.000 OA
ATOM      2  C   UNL     1      40.576  11.986  42.993  0.00  0.00    +0.000 C 
ATOM      3  N   UNL     1      39.174  11.678  43.310  0.00  0.00    +0.000 N 
ATOM      4  N   UNL     1      41.566  12.096  44.074  0.00  0.00    +0.000 N 
ATOM      5  C   UNL     1      41.154  11.897  45.471  0.00  0.00    +0.000 C 
ATOM      6  C   UNL     1      40.095  12.923  45.838  0.00  0.00    +0.000 C 
ATOM      7  N   UNL     1      38.930  12.763  44.956  0.00  0.00    +0.000 N 
ATOM      8  C   UNL     1      37.613  12.451  45.529  0.00  0.00    +0.000 A 
ATOM      9  C   UNL     1      37.464  12.303  46.954  0.00  0.00    +0.000 A 
ATOM     10  C   UNL     1      38.605  12.460  47.817  0.00  0.00    +0.000 A 
ATOM     11  C   UNL     1      38.456  12.312  49.242  0.00  0.00    +0.000 A 
ATOM     12  C   UNL     1      39.597  12.470  50.106  0.00  0.00    +0.000 A 
ATOM     13  N   UNL     1      36.509  12.299  44.693  0.00  0.00    +0.000 NA
ATOM     14  C   UNL     1      39.083  12.914  43.502  0.00  0.00    +0.000 C 
ATOM     15  C   UNL     1      42.969  12.403  43.758  0.00  0.00    +0.000 C 
ATOM     16  H   UNL     1      38.486  11.603  42.559  0.00  0.00    +0.000 HD
ENDROOT
BRANCH   3  17
ATOM     17  C   UNL     1      38.762  11.480  44.707  0.00  0.00    +0.000 C 
BRANCH  17  18
ATOM     18  C   UNL     1      38.444  10.011  44.937  0.00  0.00    +0.000 A 
ATOM     19  C   UNL     1      37.454   9.353  44.125  0.00  0.00    +0.000 A 
ATOM     20  C   UNL     1      36.765  10.086  43.095  0.00  0.00    +0.000 A 
ATOM     21  C   UNL     1      35.774   9.428  42.282  0.00  0.00    +0.000 A 
ATOM     22 CL   UNL     1      34.923  10.334  41.008  0.00  0.00    +0.000 Cl
ATOM     23  C   UNL     1      35.472   8.037  42.501  0.00  0.00    +0.000 A 
ATOM     24  C   UNL     1      39.132   9.278  45.968  0.00  0.00    +0.000 A 
ATOM     25 CL   UNL     1      40.357  10.092  46.972  0.00  0.00    +0.000 Cl
ENDBRANCH  17  18
ENDBRANCH   3  17
TORSDOF 2
ENDMDL
MODEL 10
REMARK VINA RESULT:    -5.926      2.397      4.407
REMARK INTER + INTRA:          -3.733
REMARK INTER:                  -6.612
REMARK INTRA:                   2.879
REMARK UNBOUND:                 2.886
REMARK  Name = 
REMARK  2 active torsions:
REMARK  status: ('A' for Active; 'I' for Inactive)
REMARK    1  A    between atoms: N_3  and  C_4
REMARK    2  A    between atoms: C_4  and  C_5
REMARK                            x       y       z     vdW  Elec       q    Type
REMARK                         _______ _______ _______ _____ _____    ______ ____
ROOT
ATOM      1  O   UNL     1      35.741  13.424  44.437  0.00  0.00    +0.000 OA
ATOM      2  C   UNL     1      36.861  12.828  44.522  0.00  0.00    +0.000 C 
ATOM      3  N   UNL     1      37.766  13.121  45.642  0.00  0.00    +0.000 N 
ATOM      4  N   UNL     1      37.251  11.847  43.500  0.00  0.00    +0.000 N 
ATOM      5  C   UNL     1      38.545  11.157  43.598  0.00  0.00    +0.000 C 
ATOM      6  C   UNL     1      39.668  12.181  43.571  0.00  0.00    +0.000 C 
ATOM      7  N   UNL     1      39.517  13.105  44.705  0.00  0.00    +0.000 N 
ATOM      8  C   UNL     1      40.584  13.216  45.709  0.00  0.00    +0.000 A 
ATOM      9  C   UNL     1      41.778  12.421  45.582  0.00  0.00    +0.000 A 
ATOM     10  C   UNL     1      41.926  11.515  44.472  0.00  0.00    +0.000 A 
ATOM     11  C   UNL     1      43.120  10.720  44.345  0.00  0.00    +0.000 A 
ATOM     12  C   UNL     1      43.268   9.815  43.235  0.00  0.00    +0.000 A 
ATOM     13  N   UNL     1      40.441  14.091  46.783  0.00  0.00    +0.000 NA
ATOM     14  C   UNL     1      38.298  13.917  44.833  0.00  0.00    +0.000 C 
ATOM     15  C   UNL     1      36.345  11.553  42.379  0.00  0.00    +0.000 C 
ATOM     16  H   UNL     1      37.495  13.803  46.352  0.00  0.00    +0.000 HD
ENDROOT
BRANCH   3  17
ATOM     17  C   UNL     1      39.060  12.431  45.741  0.00  0.00    +0.000 C 
BRANCH  17  18
ATOM     18  C   UNL     1      39.074  11.553  46.982  0.00  0.00    +0.000 A 
ATOM     19  C   UNL     1      39.431  10.163  46.877  0.00  0.00    +0.000 A 
ATOM     20  C   UNL     1      39.776   9.604  45.595  0.00  0.00    +0.000 A 
ATOM     21  C   UNL     1      40.134   8.212  45.489  0.00  0.00    +0.000 A 
ATOM     22 CL   UNL     1      40.561   7.521  43.905  0.00  0.00    +0.000 Cl
ATOM     23  C   UNL     1      40.147   7.381  46.665  0.00  0.00    +0.000 A 
ATOM     24  C   UNL     1      38.729  12.113  48.264  0.00  0.00    +0.000 A 
ATOM     25 CL   UNL     1      38.287  13.832  48.395  0.00  0.00    +0.000 Cl
ENDBRANCH  17  18
ENDBRANCH   3  17
TORSDOF 2
ENDMDL
