REMARK  Name = 
REMARK  11 active torsions:
REMARK  status: ('A' for Active; 'I' for Inactive)
REMARK    1  A    between atoms: C_1  and  C_2
REMARK    2  A    between atoms: C_4  and  C_5
REMARK    3  A    between atoms: C_12  and  C_13
REMARK    4  A    between atoms: C_13  and  C_14
REMARK    5  A    between atoms: C_13  and  C_15
REMARK    6  A    between atoms: C_18  and  C_19
REMARK    7  A    between atoms: C_19  and  C_20
REMARK    8  A    between atoms: C_20  and  C_21
REMARK    9  A    between atoms: C_20  and  C_22
REMARK   10  A    between atoms: N_25  and  C_26
REMARK   11  A    between atoms: C_26  and  C_27
REMARK                            x       y       z     vdW  Elec       q    Type
REMARK                         _______ _______ _______ _____ _____    ______ ____
ROOT
ATOM      1  C   UNL     1      -0.489  -2.086   3.512  0.00  0.00    +0.000 A 
ATOM      2  C   UNL     1      -0.837  -0.705   3.301  0.00  0.00    +0.000 A 
ATOM      3  C   UNL     1      -0.357  -0.012   2.133  0.00  0.00    +0.000 A 
ATOM      4  C   UNL     1      -0.705   1.370   1.922  0.00  0.00    +0.000 A 
ATOM      5  C   UNL     1      -1.533   2.058   2.879  0.00  0.00    +0.000 A 
ATOM      6  C   UNL     1      -0.969  -2.779   4.680  0.00  0.00    +0.000 A 
ATOM      7  N   UNL     1      -1.869   3.394   2.674  0.00  0.00    +0.000 NA
ATOM      8  C   UNL     1      -2.670   4.060   3.599  0.00  0.00    +0.000 A 
ATOM      9  N   UNL     1      -0.240   2.040   0.793  0.00  0.00    +0.000 N 
ENDROOT
BRANCH   1  13
ATOM     10  C   UNL     1       1.019  -0.075  -0.063  0.00  0.00    +0.000 C 
ATOM     11  C   UNL     1       0.513  -0.807   1.169  0.00  0.00    +0.000 A 
ATOM     12  N   UNL     1       0.849  -2.143   1.374  0.00  0.00    +0.000 NA
ATOM     13  C   UNL     1       0.385  -2.813   2.503  0.00  0.00    +0.000 A 
ATOM     14  N   UNL     1       0.721  -4.149   2.707  0.00  0.00    +0.000 NA
ATOM     15  O   UNL     1      -0.261  -0.164   2.063  0.00  0.00    +0.000 OA
ENDBRANCH   1  13
BRANCH   8  16
ATOM     16  C   UNL     1      -3.037   5.518   3.376  0.00  0.00    +0.000 C 
ATOM     17  C   UNL     1      -1.771   6.356   3.317  0.00  0.00    +0.000 C 
BRANCH  16  18
ATOM     18  C   UNL     1      -3.797   5.654   2.067  0.00  0.00    +0.000 A 
ATOM     19  C   UNL     1      -3.176   5.259   0.829  0.00  0.00    +0.000 A 
ATOM     20  C   UNL     1      -1.835   4.734   0.832  0.00  0.00    +0.000 A 
ATOM     21  C   UNL     1      -1.214   4.338  -0.406  0.00  0.00    +0.000 A 
ATOM     22  C   UNL     1      -1.934   4.468  -1.646  0.00  0.00    +0.000 A 
ATOM     23  C   UNL     1      -5.138   6.179   2.064  0.00  0.00    +0.000 A 
BRANCH  21  24
ATOM     24  C   UNL     1       0.201   3.784  -0.403  0.00  0.00    +0.000 C 
BRANCH  24  25
ATOM     25  C   UNL     1       0.195   2.375  -0.973  0.00  0.00    +0.000 C 
ATOM     26  C   UNL     1      -0.334   2.407  -2.397  0.00  0.00    +0.000 C 
ATOM     27  C   UNL     1       1.610   1.821  -0.970  0.00  0.00    +0.000 C 
ENDBRANCH  24  25
ENDBRANCH  21  24
ENDBRANCH  16  18
ENDBRANCH   8  16
BRANCH   9  28
ATOM     28  C   UNL     1       0.605   1.337  -0.183  0.00  0.00    +0.000 C 
BRANCH  28  29
ATOM     29  C   UNL     1       1.871   0.850   0.501  0.00  0.00    +0.000 A 
ATOM     30  C   UNL     1       2.765   1.795   1.119  0.00  0.00    +0.000 A 
ATOM     31  C   UNL     1       2.459   3.202   1.088  0.00  0.00    +0.000 A 
ATOM     32  C   UNL     1       3.353   4.147   1.705  0.00  0.00    +0.000 A 
ATOM     33  C   UNL     1       3.047   5.554   1.675  0.00  0.00    +0.000 A 
ATOM     34  C   UNL     1       2.177  -0.557   0.532  0.00  0.00    +0.000 A 
ATOM     35 CL   UNL     1       1.072  -1.725  -0.231  0.00  0.00    +0.000 Cl
ENDBRANCH  28  29
ENDBRANCH   9  28
TORSDOF 7
