REMARK  Name = 
REMARK  5 active torsions:
REMARK  status: ('A' for Active; 'I' for Inactive)
REMARK    1  A    between atoms: C_2  and  C_3
REMARK    2  A    between atoms: C_2  and  C_14
REMARK    3  A    between atoms: C_3  and  N_6
REMARK    4  A    between atoms: C_4  and  O_5
REMARK    5  A    between atoms: N_7  and  C_8
REMARK                            x       y       z     vdW  Elec       q    Type
REMARK                         _______ _______ _______ _____ _____    ______ ____
ROOT
ATOM      1  C   UNL     1       2.965  -0.360   1.245  0.00  0.00    +0.000 C 
ATOM      2  C   UNL     1       4.325  -0.360   1.245  0.00  0.00    +0.000 C 
ENDROOT
BRANCH   1   4
ATOM      3  O   UNL     1       0.934   0.075   0.003  0.00  0.00    +0.000 OA
ATOM      4  C   UNL     1       2.205   0.075   0.003  0.00  0.00    +0.000 C 
BRANCH   4   5
ATOM      5  C   UNL     1       2.965   0.510  -1.240  0.00  0.00    +0.000 A 
ATOM      6  C   UNL     1       4.405   0.510  -1.240  0.00  0.00    +0.000 A 
ATOM      7  C   UNL     1       5.125   0.098  -0.063  0.00  0.00    +0.000 A 
ATOM      8  C   UNL     1       6.565   0.098  -0.063  0.00  0.00    +0.000 A 
ATOM      9 CL   UNL     1       7.455  -0.412   1.392  0.00  0.00    +0.000 Cl
ATOM     10  C   UNL     1       7.285   0.510  -1.240  0.00  0.00    +0.000 A 
ATOM     11  C   UNL     1       2.245   0.923  -2.417  0.00  0.00    +0.000 A 
ENDBRANCH   4   5
ENDBRANCH   1   4
BRANCH   2  12
ATOM     12  O   UNL     1       5.035  -0.767   2.405  0.00  0.00    +0.000 OA
ATOM     13  H   UNL     1       4.535  -1.054   3.223  0.00  0.00    +0.000 HD
ENDBRANCH   2  12
BRANCH   1  14
ATOM     14  N   UNL     1       2.230  -0.781   2.446  0.00  0.00    +0.000 NA
ATOM     15  N   UNL     1       2.865  -1.145   3.485  0.00  0.00    +0.000 NA
BRANCH  15  16
ATOM     16  C   UNL     1       2.130  -1.566   4.686  0.00  0.00    +0.000 A 
ATOM     17  C   UNL     1       2.850  -1.979   5.864  0.00  0.00    +0.000 A 
ATOM     18  C   UNL     1       4.290  -1.979   5.864  0.00  0.00    +0.000 A 
ATOM     19  C   UNL     1       5.010  -2.391   7.041  0.00  0.00    +0.000 A 
ATOM     20  C   UNL     1       6.451  -2.391   7.041  0.00  0.00    +0.000 A 
ATOM     21  C   UNL     1       0.690  -1.566   4.686  0.00  0.00    +0.000 A 
ENDBRANCH  15  16
ENDBRANCH   1  14
TORSDOF 5
