REMARK  Name = 
REMARK  5 active torsions:
REMARK  status: ('A' for Active; 'I' for Inactive)
REMARK    1  A    between atoms: N_3  and  C_4
REMARK    2  A    between atoms: C_7  and  O_8
REMARK    3  A    between atoms: O_8  and  C_9
REMARK    4  A    between atoms: N_14  and  C_15
REMARK    5  A    between atoms: C_19  and  C_20
REMARK                            x       y       z     vdW  Elec       q    Type
REMARK                         _______ _______ _______ _____ _____    ______ ____
ROOT
ATOM      1  O   UNL     1       0.991   0.090  -0.042  0.00  0.00    +0.000 OA
ATOM      2  C   UNL     1       2.262   0.090  -0.042  0.00  0.00    +0.000 C 
ATOM      3  N   UNL     1       2.997  -1.178   0.064  0.00  0.00    +0.000 N 
ATOM      4  N   UNL     1       2.997   1.359  -0.148  0.00  0.00    +0.000 N 
ATOM      5  H   UNL     1       2.487  -2.059   0.137  0.00  0.00    +0.000 HD
ATOM      6  H   UNL     1       4.017   1.359  -0.148  0.00  0.00    +0.000 HD
ENDROOT
BRANCH   3   7
ATOM      7  C   UNL     1       4.467  -1.178   0.064  0.00  0.00    +0.000 A 
ATOM      8  C   UNL     1       5.187   0.065  -0.040  0.00  0.00    +0.000 A 
ATOM      9  C   UNL     1       4.467   1.307  -0.144  0.00  0.00    +0.000 A 
ATOM     10  C   UNL     1       5.187   2.550  -0.248  0.00  0.00    +0.000 A 
ATOM     11  C   UNL     1       6.627   2.550  -0.248  0.00  0.00    +0.000 A 
ATOM     12  C   UNL     1       5.187  -2.421   0.167  0.00  0.00    +0.000 A 
BRANCH  10  13
ATOM     13  O   UNL     1       4.477   3.776  -0.350  0.00  0.00    +0.000 OA
BRANCH  13  14
ATOM     14  C   UNL     1       3.057   3.776  -0.350  0.00  0.00    +0.000 C 
ATOM     15  F   UNL     1       2.614   3.061  -1.380  0.00  0.00    +0.000 F 
ATOM     16  F   UNL     1       2.614   3.241   0.785  0.00  0.00    +0.000 F 
ENDBRANCH  13  14
ENDBRANCH  10  13
ENDBRANCH   3   7
BRANCH   4  17
ATOM     17  C   UNL     1       2.262   2.628  -0.254  0.00  0.00    +0.000 A 
ATOM     18  C   UNL     1       0.822   2.628  -0.254  0.00  0.00    +0.000 A 
ATOM     19  C   UNL     1       0.102   1.385  -0.150  0.00  0.00    +0.000 A 
ATOM     20  C   UNL     1      -1.338   1.385  -0.150  0.00  0.00    +0.000 A 
ATOM     21  C   UNL     1      -2.059   0.142  -0.047  0.00  0.00    +0.000 A 
ATOM     22  C   UNL     1       2.982   3.870  -0.358  0.00  0.00    +0.000 A 
BRANCH  21  23
ATOM     23  C   UNL     1      -1.299  -1.170   0.063  0.00  0.00    +0.000 C 
ATOM     24  F   UNL     1      -0.534  -1.331  -1.013  0.00  0.00    +0.000 F 
ATOM     25  F   UNL     1      -0.534  -1.150   1.151  0.00  0.00    +0.000 F 
ATOM     26  F   UNL     1      -2.163  -2.178   0.147  0.00  0.00    +0.000 F 
ENDBRANCH  21  23
ENDBRANCH   4  17
TORSDOF 5
