REMARK  Name = 
REMARK  6 active torsions:
REMARK  status: ('A' for Active; 'I' for Inactive)
REMARK    1  A    between atoms: C_2  and  C_3
REMARK    2  A    between atoms: C_6  and  S_7
REMARK    3  A    between atoms: S_7  and  C_10
REMARK    4  A    between atoms: C_17  and  N_18
REMARK    5  A    between atoms: N_25  and  C_26
REMARK    6  A    between atoms: C_26  and  C_27
REMARK                            x       y       z     vdW  Elec       q    Type
REMARK                         _______ _______ _______ _____ _____    ______ ____
ROOT
ATOM      1  C   UNL     1       2.961   1.039  -0.875  0.00  0.00    +0.000 A 
ATOM      2  C   UNL     1       2.241   1.958  -1.718  0.00  0.00    +0.000 A 
ATOM      3  C   UNL     1       0.800   1.958  -1.718  0.00  0.00    +0.000 A 
ATOM      4  C   UNL     1       0.080   2.877  -2.562  0.00  0.00    +0.000 A 
ATOM      5  C   UNL     1       0.800   3.796  -3.405  0.00  0.00    +0.000 A 
ATOM      6  C   UNL     1       4.401   1.039  -0.875  0.00  0.00    +0.000 A 
ENDROOT
BRANCH   1   8
ATOM      7  O   UNL     1       0.930   0.070   0.015  0.00  0.00    +0.000 OA
ATOM      8  C   UNL     1       2.201   0.070   0.015  0.00  0.00    +0.000 C 
ATOM      9  N   UNL     1       2.936  -0.868   0.876  0.00  0.00    +0.000 N 
ATOM     10  C   UNL     1       4.406  -0.868   0.876  0.00  0.00    +0.000 C 
ATOM     11  C   UNL     1       4.912  -1.180  -0.523  0.00  0.00    +0.000 C 
ATOM     12  N   UNL     1       4.422  -0.159  -1.460  0.00  0.00    +0.000 NA
ATOM     13  C   UNL     1       2.952  -0.159  -1.460  0.00  0.00    +0.000 C 
ATOM     14  C   UNL     1       2.201  -1.806   1.737  0.00  0.00    +0.000 C 
BRANCH  12  15
ATOM     15  C   UNL     1       4.912  -0.460  -2.813  0.00  0.00    +0.000 C 
BRANCH  15  16
ATOM     16  C   UNL     1       4.406  -1.827  -3.243  0.00  0.00    +0.000 A 
ATOM     17  C   UNL     1       4.754  -2.997  -2.478  0.00  0.00    +0.000 A 
ATOM     18  C   UNL     1       5.582  -2.871  -1.307  0.00  0.00    +0.000 A 
ATOM     19  C   UNL     1       5.929  -4.041  -0.542  0.00  0.00    +0.000 A 
ATOM     20  C   UNL     1       6.757  -3.916   0.629  0.00  0.00    +0.000 A 
ATOM     21  C   UNL     1       3.578  -1.952  -4.415  0.00  0.00    +0.000 A 
ENDBRANCH  15  16
ENDBRANCH  12  15
ENDBRANCH   1   8
BRANCH   4  22
ATOM     22  S   UNL     1      -1.730   2.877  -2.562  0.00  0.00    +0.000 S 
ATOM     23  O   UNL     1      -2.240   4.254  -2.129  0.00  0.00    +0.000 OA
ATOM     24  O   UNL     1      -2.240   2.564  -3.970  0.00  0.00    +0.000 OA
BRANCH  22  25
ATOM     25  C   UNL     1      -2.333   1.620  -1.408  0.00  0.00    +0.000 A 
ATOM     26  C   UNL     1      -3.749   1.426  -1.230  0.00  0.00    +0.000 A 
ATOM     27  C   UNL     1      -4.685   2.233  -1.970  0.00  0.00    +0.000 A 
ATOM     28  C   UNL     1      -6.101   2.039  -1.792  0.00  0.00    +0.000 A 
ATOM     29  C   UNL     1      -7.037   2.845  -2.532  0.00  0.00    +0.000 A 
ATOM     30 CL   UNL     1      -6.443   4.082  -3.667  0.00  0.00    +0.000 Cl
ATOM     31  C   UNL     1      -1.397   0.813  -0.668  0.00  0.00    +0.000 A 
ENDBRANCH  22  25
ENDBRANCH   4  22
BRANCH   5  32
ATOM     32  N   UNL     1       0.065   4.734  -4.266  0.00  0.00    +0.000 N 
ATOM     33  O   UNL     1      -1.161   4.734  -4.266  0.00  0.00    +0.000 OA
ATOM     34  O   UNL     1       0.750   5.608  -5.068  0.00  0.00    +0.000 OA
ENDBRANCH   5  32
TORSDOF 6
