REMARK  Name = 
REMARK  11 active torsions:
REMARK  status: ('A' for Active; 'I' for Inactive)
REMARK    1  A    between atoms: C_1  and  O_2
REMARK    2  A    between atoms: O_2  and  C_3
REMARK    3  A    between atoms: C_6  and  C_7
REMARK    4  A    between atoms: N_12  and  C_13
REMARK    5  A    between atoms: C_13  and  C_14
REMARK    6  A    between atoms: C_14  and  C_15
REMARK    7  A    between atoms: N_17  and  C_18
REMARK    8  A    between atoms: C_21  and  C_22
REMARK    9  A    between atoms: C_22  and  O_24
REMARK   10  A    between atoms: C_30  and  O_31
REMARK   11  A    between atoms: O_31  and  C_32
REMARK                            x       y       z     vdW  Elec       q    Type
REMARK                         _______ _______ _______ _____ _____    ______ ____
ROOT
ATOM      1  C   UNL     1      -1.766   5.677  -1.850  0.00  0.00    +0.000 C 
ATOM      2  C   UNL     1      -2.220   6.948  -2.024  0.00  0.00    +0.000 C 
ATOM      3  S   UNL     1      -1.782   8.237  -0.830  0.00  0.00    +0.000 S 
ATOM      4  C   UNL     1      -2.531   9.805  -1.335  0.00  0.00    +0.000 C 
ATOM      5  S   UNL     1      -3.431   9.878  -2.680  0.00  0.00    +0.000 S 
ATOM      6  N   UNL     1      -2.323  11.013  -0.524  0.00  0.00    +0.000 N 
ATOM      7  C   UNL     1      -3.093   7.286  -3.221  0.00  0.00    +0.000 C 
ATOM      8  O   UNL     1      -3.400   6.381  -4.059  0.00  0.00    +0.000 OA
ENDROOT
BRANCH   1  12
ATOM      9  C   UNL     1       0.896   2.329   0.851  0.00  0.00    +0.000 A 
ATOM     10  C   UNL     1       0.416   3.674   0.666  0.00  0.00    +0.000 A 
ATOM     11  C   UNL     1      -0.412   3.994  -0.468  0.00  0.00    +0.000 A 
ATOM     12  C   UNL     1      -0.892   5.340  -0.653  0.00  0.00    +0.000 A 
ATOM     13  C   UNL     1      -0.544   6.365   0.297  0.00  0.00    +0.000 A 
ATOM     14  C   UNL     1       1.724   2.009   1.985  0.00  0.00    +0.000 A 
BRANCH   9  16
ATOM     15  C   UNL     1       1.026  -0.008   0.096  0.00  0.00    +0.000 C 
ATOM     16  O   UNL     1       0.553   1.318  -0.086  0.00  0.00    +0.000 OA
ENDBRANCH   9  16
BRANCH  14  17
ATOM     17  O   UNL     1       2.197   0.683   2.167  0.00  0.00    +0.000 OA
ATOM     18  C   UNL     1       3.014   0.368   3.285  0.00  0.00    +0.000 C 
ENDBRANCH  14  17
ENDBRANCH   1  12
BRANCH   6  19
ATOM     19  C   UNL     1      -2.931  12.287  -0.933  0.00  0.00    +0.000 C 
BRANCH  19  20
ATOM     20  C   UNL     1      -2.416  12.676  -2.310  0.00  0.00    +0.000 C 
BRANCH  20  21
ATOM     21  C   UNL     1      -2.783  11.593  -3.312  0.00  0.00    +0.000 C 
ATOM     22  O   UNL     1      -3.514  11.876  -4.313  0.00  0.00    +0.000 OA
ATOM     23  N   UNL     1      -2.293  10.220  -3.124  0.00  0.00    +0.000 N 
ATOM     24  H   UNL     1      -2.540   9.494  -3.796  0.00  0.00    +0.000 HD
BRANCH  23  25
ATOM     25  C   UNL     1      -1.448   9.894  -1.966  0.00  0.00    +0.000 A 
ATOM     26  C   UNL     1      -1.100  10.919  -1.016  0.00  0.00    +0.000 A 
ATOM     27  C   UNL     1      -1.580  12.264  -1.201  0.00  0.00    +0.000 A 
ATOM     28  C   UNL     1      -1.233  13.290  -0.251  0.00  0.00    +0.000 A 
ATOM     29  C   UNL     1      -0.405  12.970   0.883  0.00  0.00    +0.000 A 
ATOM     30  C   UNL     1      -0.968   8.549  -1.781  0.00  0.00    +0.000 A 
BRANCH  28  31
ATOM     31  C   UNL     1      -1.739  14.710  -0.446  0.00  0.00    +0.000 C 
ATOM     32  O   UNL     1      -1.432  15.614   0.392  0.00  0.00    +0.000 OA
BRANCH  31  33
ATOM     33  O   UNL     1      -2.556  15.025  -1.564  0.00  0.00    +0.000 OA
ATOM     34  H   UNL     1      -2.889  15.959  -1.692  0.00  0.00    +0.000 HD
ENDBRANCH  31  33
ENDBRANCH  28  31
ENDBRANCH  23  25
ENDBRANCH  20  21
ENDBRANCH  19  20
ENDBRANCH   6  19
TORSDOF 9
