REMARK  Name = 
REMARK  11 active torsions:
REMARK  status: ('A' for Active; 'I' for Inactive)
REMARK    1  A    between atoms: C_1  and  N_2
REMARK    2  A    between atoms: N_2  and  C_3
REMARK    3  A    between atoms: N_2  and  C_4
REMARK    4  A    between atoms: C_7  and  C_8
REMARK    5  A    between atoms: C_8  and  C_9
REMARK    6  A    between atoms: C_8  and  C_13
REMARK    7  A    between atoms: C_9  and  N_10
REMARK    8  A    between atoms: C_14  and  N_15
REMARK    9  A    between atoms: N_16  and  C_17
REMARK   10  A    between atoms: N_20  and  C_21
REMARK   11  A    between atoms: C_26  and  C_27
REMARK                            x       y       z     vdW  Elec       q    Type
REMARK                         _______ _______ _______ _____ _____    ______ ____
ROOT
ATOM      1  C   UNL     1      -1.796  -2.898   5.355  0.00  0.00    +0.000 C 
ENDROOT
BRANCH   1   2
ATOM      2  C   UNL     1      -1.112  -3.120   6.695  0.00  0.00    +0.000 A 
ATOM      3  C   UNL     1      -0.799  -4.456   7.131  0.00  0.00    +0.000 A 
ATOM      4  N   UNL     1      -0.172  -4.659   8.358  0.00  0.00    +0.000 N 
ATOM      5  C   UNL     1       0.170  -3.509   9.208  0.00  0.00    +0.000 C 
ATOM      6  C   UNL     1       0.131  -5.951   8.780  0.00  0.00    +0.000 A 
ATOM      7  O   UNL     1      -0.165  -6.945   8.046  0.00  0.00    +0.000 OA
ATOM      8  N   UNL     1       0.757  -6.154  10.007  0.00  0.00    +0.000 N 
ATOM      9  C   UNL     1       1.077  -7.518  10.453  0.00  0.00    +0.000 C 
ATOM     10  C   UNL     1      -0.777  -1.993   7.527  0.00  0.00    +0.000 A 
ATOM     11  O   UNL     1      -1.053  -0.814   7.142  0.00  0.00    +0.000 OA
BRANCH   3  12
ATOM     12  N   UNL     1      -1.141  -5.606   6.281  0.00  0.00    +0.000 N 
ATOM     13  H   UNL     1      -0.919  -6.552   6.591  0.00  0.00    +0.000 HD
ATOM     14  H   UNL     1      -1.600  -5.457   5.383  0.00  0.00    +0.000 HD
ENDBRANCH   3  12
ENDBRANCH   1   2
BRANCH   1  18
ATOM     15  C   UNL     1       0.866  -2.235   1.106  0.00  0.00    +0.000 A 
ATOM     16  C   UNL     1       0.386  -3.107   2.147  0.00  0.00    +0.000 A 
ATOM     17  C   UNL     1      -0.442  -2.581   3.201  0.00  0.00    +0.000 A 
ATOM     18  C   UNL     1      -0.922  -3.453   4.242  0.00  0.00    +0.000 A 
ATOM     19  C   UNL     1      -0.574  -4.851   4.228  0.00  0.00    +0.000 A 
ATOM     20  F   UNL     1      -1.018  -5.656   5.190  0.00  0.00    +0.000 F 
ATOM     21  C   UNL     1       1.694  -2.760   0.051  0.00  0.00    +0.000 A 
BRANCH  15  23
ATOM     22  C   UNL     1       1.001   0.082   0.058  0.00  0.00    +0.000 C 
ATOM     23  N   UNL     1       0.511  -0.808   1.120  0.00  0.00    +0.000 N 
ATOM     24  C   UNL     1      -0.334  -0.272   2.197  0.00  0.00    +0.000 C 
ENDBRANCH  15  23
BRANCH  21  25
ATOM     25  C   UNL     1       2.201  -1.840  -1.047  0.00  0.00    +0.000 C 
ATOM     26  N   UNL     1       2.621  -1.076  -1.959  0.00  0.00    +0.000 NA
ENDBRANCH  21  25
ENDBRANCH   1  18
BRANCH   1  27
ATOM     27  C   UNL     1      -3.139  -3.611   5.348  0.00  0.00    +0.000 C 
BRANCH  27  28
ATOM     28  N   UNL     1      -2.930  -5.051   5.560  0.00  0.00    +0.000 N 
ATOM     29  O   UNL     1      -3.438  -5.608   6.527  0.00  0.00    +0.000 OA
ATOM     30  O   UNL     1      -2.169  -5.770   4.677  0.00  0.00    +0.000 OA
ENDBRANCH  27  28
ENDBRANCH   1  27
TORSDOF 7
