REMARK  Name = 
REMARK  9 active torsions:
REMARK  status: ('A' for Active; 'I' for Inactive)
REMARK    1  A    between atoms: C_6  and  C_7
REMARK    2  A    between atoms: C_7  and  C_8
REMARK    3  A    between atoms: C_8  and  O_9
REMARK    4  A    between atoms: C_8  and  C_10
REMARK    5  A    between atoms: C_13  and  O_14
REMARK    6  A    between atoms: O_14  and  C_15
REMARK    7  A    between atoms: C_18  and  O_19
REMARK    8  A    between atoms: O_19  and  C_20
REMARK    9  A    between atoms: C_20  and  C_21
REMARK                            x       y       z     vdW  Elec       q    Type
REMARK                         _______ _______ _______ _____ _____    ______ ____
ROOT
ATOM      1  C   UNL     1      -1.437   0.507  -1.074  0.00  0.00    +0.000 A 
ATOM      2  C   UNL     1      -2.337   0.531   0.050  0.00  0.00    +0.000 A 
ATOM      3  C   UNL     1      -2.517  -0.651   0.854  0.00  0.00    +0.000 A 
ATOM      4  C   UNL     1      -3.418  -0.627   1.978  0.00  0.00    +0.000 A 
ATOM      5  C   UNL     1      -4.138   0.578   2.298  0.00  0.00    +0.000 A 
ATOM      6  C   UNL     1      -1.257   1.688  -1.877  0.00  0.00    +0.000 A 
ENDROOT
BRANCH   1   7
ATOM      7  C   UNL     1      -0.677  -0.765  -1.412  0.00  0.00    +0.000 C 
BRANCH   7   8
ATOM      8  O   UNL     1       0.139  -1.136  -0.311  0.00  0.00    +0.000 OA
ATOM      9  H   UNL     1      -0.319  -2.012  -0.159  0.00  0.00    +0.000 HD
ENDBRANCH   7   8
BRANCH   7  10
ATOM     10  C   UNL     1      -1.665  -1.882  -1.709  0.00  0.00    +0.000 C 
BRANCH  10  16
ATOM     11  O   UNL     1      -1.790  -2.796  -0.627  0.00  0.00    +0.000 OA
ATOM     12  N   UNL     1      -1.871  -4.162  -0.709  0.00  0.00    +0.000 N 
ATOM     13  C   UNL     1      -1.833  -4.788  -1.953  0.00  0.00    +0.000 A 
ATOM     14  C   UNL     1      -1.709  -4.001  -3.152  0.00  0.00    +0.000 A 
ATOM     15 CL   UNL     1      -1.661  -4.801  -4.741  0.00  0.00    +0.000 Cl
ATOM     16  C   UNL     1      -1.624  -2.566  -3.066  0.00  0.00    +0.000 A 
ATOM     17  C   UNL     1      -1.499  -1.778  -4.265  0.00  0.00    +0.000 A 
ATOM     18 CL   UNL     1      -1.394  -0.004  -4.159  0.00  0.00    +0.000 Cl
ATOM     19  C   UNL     1      -1.991  -4.923   0.451  0.00  0.00    +0.000 A 
ENDBRANCH  10  16
ENDBRANCH   7  10
ENDBRANCH   1   7
BRANCH   4  20
ATOM     20  O   UNL     1      -3.595  -1.792   2.770  0.00  0.00    +0.000 OA
BRANCH  20  21
ATOM     21  C   UNL     1      -2.885  -2.980   2.454  0.00  0.00    +0.000 C 
ATOM     22  F   UNL     1      -3.206  -3.376   1.226  0.00  0.00    +0.000 F 
ATOM     23  F   UNL     1      -1.577  -2.746   2.517  0.00  0.00    +0.000 F 
ENDBRANCH  20  21
ENDBRANCH   4  20
BRANCH   5  24
ATOM     24  O   UNL     1      -5.025   0.602   3.406  0.00  0.00    +0.000 OA
BRANCH  24  25
ATOM     25  C   UNL     1      -5.735   1.790   3.722  0.00  0.00    +0.000 C 
BRANCH  25  26
ATOM     26  C   UNL     1      -4.747   2.907   4.019  0.00  0.00    +0.000 C 
ATOM     27  C   UNL     1      -5.507   4.179   4.357  0.00  0.00    +0.000 C 
ATOM     28  C   UNL     1      -3.874   3.148   2.799  0.00  0.00    +0.000 C 
ENDBRANCH  25  26
ENDBRANCH  24  25
ENDBRANCH   5  24
TORSDOF 9
