REMARK  Name = 
REMARK  5 active torsions:
REMARK  status: ('A' for Active; 'I' for Inactive)
REMARK    1  A    between atoms: C_1  and  C_2
REMARK    2  A    between atoms: C_2  and  N_3
REMARK    3  A    between atoms: C_2  and  C_10
REMARK    4  A    between atoms: N_3  and  C_4
REMARK    5  A    between atoms: C_16  and  O_17
REMARK                            x       y       z     vdW  Elec       q    Type
REMARK                         _______ _______ _______ _____ _____    ______ ____
ROOT
ATOM      1  C   UNL     1       0.964   0.081  -0.047  0.00  0.00    +0.000 C 
ATOM      2  C   UNL     1       0.457   0.264  -1.468  0.00  0.00    +0.000 C 
ENDROOT
BRANCH   2   3
ATOM      3  C   UNL     1      -1.063   0.264  -1.468  0.00  0.00    +0.000 A 
ATOM      4  C   UNL     1      -1.783  -0.887  -0.987  0.00  0.00    +0.000 A 
ATOM      5  C   UNL     1      -1.063  -2.038  -0.507  0.00  0.00    +0.000 A 
ATOM      6 CL   UNL     1      -1.953  -3.461   0.087  0.00  0.00    +0.000 Cl
ATOM      7  C   UNL     1       0.377  -2.038  -0.507  0.00  0.00    +0.000 A 
ATOM      8  C   UNL     1       1.097  -0.887  -0.987  0.00  0.00    +0.000 A 
ATOM      9  C   UNL     1      -1.783   1.414  -1.949  0.00  0.00    +0.000 A 
BRANCH   9  10
ATOM     10  O   UNL     1      -1.073   2.549  -2.423  0.00  0.00    +0.000 OA
ATOM     11  H   UNL     1      -1.573   3.348  -2.756  0.00  0.00    +0.000 HD
ENDBRANCH   9  10
ENDBRANCH   2   3
BRANCH   2  12
ATOM     12  N   UNL     1       0.947  -0.838  -2.309  0.00  0.00    +0.000 N 
ATOM     13  H   UNL     1       1.950  -0.987  -2.422  0.00  0.00    +0.000 HD
BRANCH  12  14
ATOM     14  C   UNL     1      -0.008  -1.727  -2.986  0.00  0.00    +0.000 A 
ATOM     15  C   UNL     1      -1.424  -1.518  -2.827  0.00  0.00    +0.000 A 
ATOM     16  C   UNL     1      -1.904  -0.438  -2.003  0.00  0.00    +0.000 A 
ATOM     17  C   UNL     1      -3.320  -0.229  -1.844  0.00  0.00    +0.000 A 
ATOM     18  C   UNL     1      -3.800   0.851  -1.020  0.00  0.00    +0.000 A 
ATOM     19  C   UNL     1       0.472  -2.806  -3.810  0.00  0.00    +0.000 A 
ENDBRANCH  12  14
ENDBRANCH   2  12
TORSDOF 4
