REMARK  Name = 
REMARK  4 active torsions:
REMARK  status: ('A' for Active; 'I' for Inactive)
REMARK    1  A    between atoms: C_2  and  C_3
REMARK    2  A    between atoms: C_16  and  C_17
REMARK    3  A    between atoms: C_20  and  C_21
REMARK    4  A    between atoms: C_22  and  C_23
REMARK                            x       y       z     vdW  Elec       q    Type
REMARK                         _______ _______ _______ _____ _____    ______ ____
ROOT
ATOM      1  O   UNL     1       1.031  -0.093  -0.022  0.00  0.00    +0.000 OA
ATOM      2  C   UNL     1       2.302  -0.093  -0.022  0.00  0.00    +0.000 C 
ATOM      3  N   UNL     1       3.037  -1.047  -0.864  0.00  0.00    +0.000 N 
ATOM      4  C   UNL     1       4.507  -1.047  -0.864  0.00  0.00    +0.000 C 
ATOM      5  C   UNL     1       5.013   0.311  -1.321  0.00  0.00    +0.000 C 
ATOM      6  N   UNL     1       8.510  -0.763  -2.269  0.00  0.00    +0.000 NA
ATOM      7  C   UNL     1       7.040  -0.763  -2.269  0.00  0.00    +0.000 C 
ATOM      8  C   UNL     1       2.302  -2.001  -1.707  0.00  0.00    +0.000 C 
ATOM      9  C   UNL     1       6.533   0.311  -1.321  0.00  0.00    +0.000 C 
ATOM     10  H   UNL     1       8.850   0.149  -2.575  0.00  0.00    +0.000 HD
ENDROOT
BRANCH   2  11
ATOM     11  C   UNL     1       3.062   0.894   0.849  0.00  0.00    +0.000 A 
ATOM     12  C   UNL     1       2.341   1.829   1.675  0.00  0.00    +0.000 A 
ATOM     13  C   UNL     1       0.901   1.829   1.675  0.00  0.00    +0.000 A 
ATOM     14  C   UNL     1       0.181   2.764   2.500  0.00  0.00    +0.000 A 
ATOM     15  F   UNL     1      -1.149   2.764   2.500  0.00  0.00    +0.000 F 
ATOM     16  C   UNL     1       0.901   3.699   3.325  0.00  0.00    +0.000 A 
ATOM     17  C   UNL     1       4.502   0.894   0.849  0.00  0.00    +0.000 A 
ENDBRANCH   2  11
BRANCH   9  18
ATOM     18  C   UNL     1       7.040   1.670  -1.777  0.00  0.00    +0.000 A 
ATOM     19  C   UNL     1       6.692   2.167  -3.083  0.00  0.00    +0.000 A 
ATOM     20  C   UNL     1       5.864   1.376  -3.957  0.00  0.00    +0.000 A 
ATOM     21  C   UNL     1       5.516   1.873  -5.263  0.00  0.00    +0.000 A 
ATOM     22  C   UNL     1       5.996   3.160  -5.696  0.00  0.00    +0.000 A 
ATOM     23  C   UNL     1       7.868   2.460  -0.903  0.00  0.00    +0.000 A 
BRANCH  21  24
ATOM     24  C   UNL     1       4.642   1.039  -6.186  0.00  0.00    +0.000 C 
ATOM     25  C   UNL     1       4.314   1.508  -7.420  0.00  0.00    +0.000 C 
BRANCH  25  26
ATOM     26  C   UNL     1       3.440   0.674  -8.342  0.00  0.00    +0.000 A 
ATOM     27  C   UNL     1       2.960  -0.613  -7.910  0.00  0.00    +0.000 A 
ATOM     28  C   UNL     1       3.307  -1.110  -6.604  0.00  0.00    +0.000 A 
ATOM     29  C   UNL     1       2.827  -2.397  -6.171  0.00  0.00    +0.000 A 
ATOM     30  C   UNL     1       3.175  -2.894  -4.865  0.00  0.00    +0.000 A 
ATOM     31  C   UNL     1       3.092   1.171  -9.648  0.00  0.00    +0.000 A 
ENDBRANCH  25  26
ENDBRANCH  21  24
ENDBRANCH   9  18
TORSDOF 4
