REMARK  Name = 
REMARK  9 active torsions:
REMARK  status: ('A' for Active; 'I' for Inactive)
REMARK    1  A    between atoms: C_1  and  O_2
REMARK    2  A    between atoms: O_2  and  C_3
REMARK    3  A    between atoms: C_6  and  C_7
REMARK    4  A    between atoms: C_7  and  C_9
REMARK    5  A    between atoms: C_9  and  C_10
REMARK    6  A    between atoms: C_18  and  O_19
REMARK    7  A    between atoms: O_19  and  C_20
REMARK    8  A    between atoms: C_21  and  O_22
REMARK    9  A    between atoms: O_22  and  C_23
REMARK                            x       y       z     vdW  Elec       q    Type
REMARK                         _______ _______ _______ _____ _____    ______ ____
ROOT
ATOM      1  C   UNL     1       0.811   2.129   1.056  0.00  0.00    +0.000 A 
ATOM      2  C   UNL     1       0.331   3.486   1.079  0.00  0.00    +0.000 A 
ATOM      3  C   UNL     1      -0.497   3.976   0.007  0.00  0.00    +0.000 A 
ATOM      4  C   UNL     1      -0.977   5.334   0.031  0.00  0.00    +0.000 A 
ATOM      5  C   UNL     1      -0.629   6.202   1.126  0.00  0.00    +0.000 A 
ATOM      6  C   UNL     1       1.639   1.639   2.128  0.00  0.00    +0.000 A 
ENDROOT
BRANCH   1   8
ATOM      7  C   UNL     1       0.941  -0.066  -0.047  0.00  0.00    +0.000 C 
ATOM      8  O   UNL     1       0.468   1.273  -0.024  0.00  0.00    +0.000 OA
ENDBRANCH   1   8
BRANCH   4   9
ATOM      9  C   UNL     1      -1.851   5.850  -1.101  0.00  0.00    +0.000 C 
ATOM     10  O   UNL     1      -2.275   7.048  -1.080  0.00  0.00    +0.000 OA
BRANCH   9  11
ATOM     11  C   UNL     1      -2.218   4.934  -2.256  0.00  0.00    +0.000 C 
BRANCH  11  12
ATOM     12  C   UNL     1      -0.951   4.467  -2.955  0.00  0.00    +0.000 A 
ATOM     13  C   UNL     1      -0.057   5.430  -3.545  0.00  0.00    +0.000 A 
ATOM     14 CL   UNL     1      -0.436   7.167  -3.455  0.00  0.00    +0.000 Cl
ATOM     15  C   UNL     1       1.143   4.987  -4.206  0.00  0.00    +0.000 A 
ATOM     16  N   UNL     1       1.439   3.628  -4.276  0.00  0.00    +0.000 NA
ATOM     17  C   UNL     1       0.574   2.697  -3.706  0.00  0.00    +0.000 A 
ATOM     18  C   UNL     1      -0.645   3.062  -3.027  0.00  0.00    +0.000 A 
ATOM     19 CL   UNL     1      -1.750   1.872  -2.298  0.00  0.00    +0.000 Cl
ENDBRANCH  11  12
ENDBRANCH   9  11
ENDBRANCH   4   9
BRANCH   5  20
ATOM     20  O   UNL     1      -1.102   7.540   1.149  0.00  0.00    +0.000 OA
ATOM     21  C   UNL     1      -0.759   8.396   2.229  0.00  0.00    +0.000 C 
ENDBRANCH   5  20
BRANCH   6  22
ATOM     22  O   UNL     1       2.112   0.300   2.105  0.00  0.00    +0.000 OA
ATOM     23  C   UNL     1       2.929  -0.182   3.161  0.00  0.00    +0.000 C 
ENDBRANCH   6  22
TORSDOF 6
