REMARK  Name = 
REMARK  8 active torsions:
REMARK  status: ('A' for Active; 'I' for Inactive)
REMARK    1  A    between atoms: C_1  and  C_2
REMARK    2  A    between atoms: C_2  and  C_3
REMARK    3  A    between atoms: C_3  and  C_4
REMARK    4  A    between atoms: C_4  and  O_5
REMARK    5  A    between atoms: O_5  and  C_6
REMARK    6  A    between atoms: C_9  and  C_10
REMARK    7  A    between atoms: N_12  and  C_13
REMARK    8  A    between atoms: C_20  and  C_21
REMARK                            x       y       z     vdW  Elec       q    Type
REMARK                         _______ _______ _______ _____ _____    ______ ____
ROOT
ATOM      1  C   UNL     1      -6.068  -3.394  -2.548  0.00  0.00    +0.000 A 
ATOM      2  N   UNL     1      -5.372  -4.368  -3.259  0.00  0.00    +0.000 NA
ATOM      3  N   UNL     1      -6.045  -5.309  -3.946  0.00  0.00    +0.000 N 
ATOM      4  C   UNL     1      -5.348  -6.283  -4.658  0.00  0.00    +0.000 A 
ATOM      5  C   UNL     1      -7.509  -3.394  -2.548  0.00  0.00    +0.000 A 
ENDROOT
BRANCH   5   6
ATOM      6  C   UNL     1      -8.269  -2.331  -1.771  0.00  0.00    +0.000 C 
ATOM      7  C   UNL     1      -7.588  -1.380  -1.076  0.00  0.00    +0.000 C 
ATOM      8  C   UNL     1      -6.068  -1.380  -1.076  0.00  0.00    +0.000 C 
ATOM      9  O   UNL     1      -5.433  -2.268  -1.725  0.00  0.00    +0.000 OA
ATOM     10  N   UNL     1      -5.333  -0.352  -0.325  0.00  0.00    +0.000 N 
ATOM     11  C   UNL     1      -6.068   0.676   0.426  0.00  0.00    +0.000 C 
ATOM     12  S   UNL     1      -5.258   1.809   1.253  0.00  0.00    +0.000 S 
ATOM     13  N   UNL     1      -7.538   0.676   0.426  0.00  0.00    +0.000 N 
ATOM     14  C   UNL     1      -8.348  -0.317  -0.300  0.00  0.00    +0.000 C 
ATOM     15  O   UNL     1      -9.619  -0.317  -0.300  0.00  0.00    +0.000 OA
ATOM     16  H   UNL     1      -4.313  -0.352  -0.325  0.00  0.00    +0.000 HD
ATOM     17  H   UNL     1      -8.048   1.390   0.947  0.00  0.00    +0.000 HD
ENDBRANCH   5   6
BRANCH   1  21
ATOM     18  C   UNL     1      -1.708  -1.324  -1.035  0.00  0.00    +0.000 A 
ATOM     19  C   UNL     1      -3.148  -1.324  -1.035  0.00  0.00    +0.000 A 
ATOM     20  C   UNL     1      -3.868  -2.331  -1.771  0.00  0.00    +0.000 A 
ATOM     21  C   UNL     1      -5.308  -2.331  -1.771  0.00  0.00    +0.000 A 
ATOM     22  C   UNL     1      -6.028  -1.324  -1.035  0.00  0.00    +0.000 A 
ATOM     23  C   UNL     1      -0.988  -0.317  -0.300  0.00  0.00    +0.000 A 
BRANCH  18  24
ATOM     24  O   UNL     1      -0.998  -2.317  -1.761  0.00  0.00    +0.000 OA
BRANCH  24  25
ATOM     25  C   UNL     1       0.422  -2.317  -1.761  0.00  0.00    +0.000 C 
BRANCH  25  26
ATOM     26  C   UNL     1       0.929  -1.006  -2.340  0.00  0.00    +0.000 C 
BRANCH  26  28
ATOM     27  C   UNL     1       0.929  -0.003  -0.070  0.00  0.00    +0.000 C 
ATOM     28  C   UNL     1       0.422   0.151  -1.495  0.00  0.00    +0.000 C 
ENDBRANCH  26  28
ENDBRANCH  25  26
ENDBRANCH  24  25
ENDBRANCH  18  24
ENDBRANCH   1  21
BRANCH   3  29
ATOM     29  C   UNL     1      -7.515  -5.309  -3.946  0.00  0.00    +0.000 A 
ATOM     30  C   UNL     1      -8.235  -4.302  -3.211  0.00  0.00    +0.000 A 
ATOM     31  C   UNL     1      -7.515  -3.295  -2.475  0.00  0.00    +0.000 A 
ATOM     32  C   UNL     1      -8.235  -2.287  -1.739  0.00  0.00    +0.000 A 
ATOM     33  C   UNL     1      -7.515  -1.280  -1.004  0.00  0.00    +0.000 A 
ATOM     34  C   UNL     1      -8.235  -6.316  -4.682  0.00  0.00    +0.000 A 
ENDBRANCH   3  29
TORSDOF 7
