REMARK  Name = 
REMARK  8 active torsions:
REMARK  status: ('A' for Active; 'I' for Inactive)
REMARK    1  A    between atoms: C_1  and  O_2
REMARK    2  A    between atoms: O_2  and  C_3
REMARK    3  A    between atoms: C_8  and  C_9
REMARK    4  A    between atoms: C_12  and  C_13
REMARK    5  A    between atoms: N_15  and  C_16
REMARK    6  A    between atoms: C_16  and  C_17
REMARK    7  A    between atoms: C_17  and  C_18
REMARK    8  A    between atoms: C_19  and  C_20
REMARK                            x       y       z     vdW  Elec       q    Type
REMARK                         _______ _______ _______ _____ _____    ______ ____
ROOT
ATOM      1  C   UNL     1       4.657  -0.198   6.670  0.00  0.00    +0.000 C 
ATOM      2  O   UNL     1       5.388  -0.809   7.512  0.00  0.00    +0.000 OA
ATOM      3  N   UNL     1       4.167   1.155   6.967  0.00  0.00    +0.000 N 
ATOM      4  H   UNL     1       4.413   1.604   7.849  0.00  0.00    +0.000 HD
ENDROOT
BRANCH   1   8
ATOM      5  C   UNL     1       2.286  -0.118   2.202  0.00  0.00    +0.000 A 
ATOM      6  C   UNL     1       3.114  -0.810   3.156  0.00  0.00    +0.000 A 
ATOM      7  C   UNL     1       3.462  -0.176   4.402  0.00  0.00    +0.000 A 
ATOM      8  C   UNL     1       4.290  -0.868   5.355  0.00  0.00    +0.000 A 
ATOM      9  C   UNL     1       4.770  -2.194   5.064  0.00  0.00    +0.000 A 
ATOM     10  C   UNL     1       1.938  -0.752   0.957  0.00  0.00    +0.000 A 
ATOM     11  F   UNL     1       1.173  -0.113   0.076  0.00  0.00    +0.000 F 
BRANCH   5  17
ATOM     12  C   UNL     1       0.951   1.974   1.556  0.00  0.00    +0.000 A 
ATOM     13  C   UNL     1       0.471   3.300   1.848  0.00  0.00    +0.000 A 
ATOM     14  C   UNL     1      -0.357   3.992   0.894  0.00  0.00    +0.000 A 
ATOM     15  C   UNL     1      -0.837   5.318   1.186  0.00  0.00    +0.000 A 
ATOM     16  C   UNL     1      -1.665   6.010   0.232  0.00  0.00    +0.000 A 
ATOM     17  C   UNL     1       1.779   1.282   2.510  0.00  0.00    +0.000 A 
BRANCH  12  19
ATOM     18  C   UNL     1       1.082   0.041   0.041  0.00  0.00    +0.000 C 
ATOM     19  O   UNL     1       0.608   1.348   0.328  0.00  0.00    +0.000 OA
ENDBRANCH  12  19
ENDBRANCH   5  17
ENDBRANCH   1   8
BRANCH   3  20
ATOM     20  C   UNL     1       3.322   1.862   5.994  0.00  0.00    +0.000 C 
BRANCH  20  21
ATOM     21  C   UNL     1       1.979   2.185   6.629  0.00  0.00    +0.000 C 
BRANCH  21  22
ATOM     22  C   UNL     1       2.195   3.068   7.847  0.00  0.00    +0.000 A 
ATOM     23  C   UNL     1       2.995   2.594   8.947  0.00  0.00    +0.000 A 
ATOM     24  C   UNL     1       3.624   1.212   8.890  0.00  0.00    +0.000 C 
ATOM     25  N   UNL     1       3.192   3.403  10.064  0.00  0.00    +0.000 N 
ATOM     26  C   UNL     1       2.616   4.670  10.117  0.00  0.00    +0.000 A 
ATOM     27  C   UNL     1       1.816   5.144   9.017  0.00  0.00    +0.000 A 
ATOM     28  C   UNL     1       1.612   4.307   7.862  0.00  0.00    +0.000 A 
ATOM     29  C   UNL     1       0.811   4.781   6.762  0.00  0.00    +0.000 A 
ATOM     30  C   UNL     1       0.607   3.944   5.608  0.00  0.00    +0.000 A 
ATOM     31  C   UNL     1       2.820   5.507  11.271  0.00  0.00    +0.000 A 
ATOM     32  H   UNL     1       3.759   3.068  10.843  0.00  0.00    +0.000 HD
ENDBRANCH  21  22
ENDBRANCH  20  21
ENDBRANCH   3  20
TORSDOF 6
