REMARK  Name = 
REMARK  7 active torsions:
REMARK  status: ('A' for Active; 'I' for Inactive)
REMARK    1  A    between atoms: C_2  and  C_3
REMARK    2  A    between atoms: C_4  and  C_5
REMARK    3  A    between atoms: C_8  and  C_9
REMARK    4  A    between atoms: C_10  and  C_11
REMARK    5  A    between atoms: C_20  and  C_21
REMARK    6  A    between atoms: C_21  and  O_22
REMARK    7  A    between atoms: C_24  and  C_26
REMARK                            x       y       z     vdW  Elec       q    Type
REMARK                         _______ _______ _______ _____ _____    ______ ____
ROOT
ATOM      1  C   UNL     1       3.695   0.044  -0.025  0.00  0.00    +0.000 C 
ATOM      2  C   UNL     1       6.372   0.194  -2.404  0.00  0.00    +0.000 C 
ATOM      3  C   UNL     1       5.030   0.813  -2.052  0.00  0.00    +0.000 C 
ATOM      4  N   UNL     1       4.185  -0.191  -1.391  0.00  0.00    +0.000 N 
ATOM      5  C   UNL     1       3.830  -1.432  -2.095  0.00  0.00    +0.000 C 
ATOM      6  O   UNL     1       3.099  -2.300  -1.524  0.00  0.00    +0.000 OA
ENDROOT
BRANCH   2   7
ATOM      7  C   UNL     1       7.246   1.233  -3.087  0.00  0.00    +0.000 A 
ATOM      8  C   UNL     1       6.811   1.843  -4.317  0.00  0.00    +0.000 A 
ATOM      9  C   UNL     1       5.548   1.468  -4.900  0.00  0.00    +0.000 A 
ATOM     10  C   UNL     1       5.114   2.078  -6.130  0.00  0.00    +0.000 A 
ATOM     11  C   UNL     1       5.942   3.063  -6.777  0.00  0.00    +0.000 A 
ATOM     12  C   UNL     1       8.509   1.607  -2.505  0.00  0.00    +0.000 A 
BRANCH  10  13
ATOM     13  C   UNL     1       3.781   1.683  -6.744  0.00  0.00    +0.000 C 
ATOM     14  C   UNL     1       2.637   1.344  -7.271  0.00  0.00    +0.000 C 
BRANCH  14  15
ATOM     15  C   UNL     1       1.304   0.949  -7.886  0.00  0.00    +0.000 A 
ATOM     16  C   UNL     1       0.321   0.260  -7.091  0.00  0.00    +0.000 A 
ATOM     17  C   UNL     1       0.600  -0.054  -5.713  0.00  0.00    +0.000 A 
ATOM     18  C   UNL     1      -0.384  -0.743  -4.918  0.00  0.00    +0.000 A 
ATOM     19  F   UNL     1      -0.126  -1.033  -3.646  0.00  0.00    +0.000 F 
ATOM     20  C   UNL     1      -1.646  -1.117  -5.501  0.00  0.00    +0.000 A 
ATOM     21  C   UNL     1       1.025   1.263  -9.263  0.00  0.00    +0.000 A 
ENDBRANCH  14  15
ENDBRANCH  10  13
ENDBRANCH   2   7
BRANCH   5  22
ATOM     22  C   UNL     1       4.336  -1.675  -3.508  0.00  0.00    +0.000 C 
ATOM     23  C   UNL     1       5.856  -1.675  -3.508  0.00  0.00    +0.000 C 
ATOM     24  C   UNL     1       6.363  -2.776  -2.591  0.00  0.00    +0.000 C 
ATOM     25  C   UNL     1       3.830  -0.574  -4.425  0.00  0.00    +0.000 C 
ENDBRANCH   5  22
BRANCH   1  27
ATOM     26  N   UNL     1       4.519   2.534   0.892  0.00  0.00    +0.000 NA
ATOM     27  C   UNL     1       4.201   1.389   0.470  0.00  0.00    +0.000 C 
ENDBRANCH   1  27
BRANCH   3  28
ATOM     28  C   UNL     1       4.346   1.295  -3.321  0.00  0.00    +0.000 C 
BRANCH  28  29
ATOM     29  O   UNL     1       3.091   1.874  -2.992  0.00  0.00    +0.000 OA
ATOM     30  H   UNL     1       2.517   1.190  -2.542  0.00  0.00    +0.000 HD
ENDBRANCH  28  29
ENDBRANCH   3  28
TORSDOF 7
