MODEL 1
REMARK VINA RESULT:    -6.081      0.000      0.000
REMARK INTER + INTRA:          -9.575
REMARK INTER:                  -8.214
REMARK INTRA:                  -1.362
REMARK UNBOUND:                -1.362
REMARK  Name = 
REMARK  7 active torsions:
REMARK  status: ('A' for Active; 'I' for Inactive)
REMARK    1  A    between atoms: C_1  and  O_2
REMARK    2  A    between atoms: O_2  and  C_3
REMARK    3  A    between atoms: C_6  and  C_7
REMARK    4  A    between atoms: N_9  and  N_10
REMARK    5  A    between atoms: N_10  and  C_11
REMARK    6  A    between atoms: C_11  and  N_13
REMARK    7  A    between atoms: C_14  and  C_16
REMARK                            x       y       z     vdW  Elec       q    Type
REMARK                         _______ _______ _______ _____ _____    ______ ____
ROOT
ATOM      1  N   UNL     1      11.791   3.312  28.157  0.00  0.00    +0.000 N 
ATOM      2  H   UNL     1      11.876   2.314  27.968  0.00  0.00    +0.000 HD
ENDROOT
BRANCH   1   5
ATOM      3  C   UNL     1       9.801   3.429  26.643  0.00  0.00    +0.000 C 
ATOM      4  O   UNL     1       8.805   4.077  26.192  0.00  0.00    +0.000 OA
ATOM      5  N   UNL     1      10.678   4.037  27.654  0.00  0.00    +0.000 N 
ATOM      6  H   UNL     1      10.486   4.979  27.996  0.00  0.00    +0.000 HD
BRANCH   3  10
ATOM      7  C   UNL     1      11.879   0.322  23.234  0.00  0.00    +0.000 A 
ATOM      8  C   UNL     1      11.119   0.509  24.444  0.00  0.00    +0.000 A 
ATOM      9  C   UNL     1      10.848   1.839  24.925  0.00  0.00    +0.000 A 
ATOM     10  C   UNL     1      10.087   2.026  26.134  0.00  0.00    +0.000 A 
ATOM     11  C   UNL     1       9.599   0.882  26.862  0.00  0.00    +0.000 A 
ATOM     12  C   UNL     1      12.151  -1.007  22.753  0.00  0.00    +0.000 A 
BRANCH   7  14
ATOM     13  C   UNL     1      11.793   1.786  21.259  0.00  0.00    +0.000 C 
ATOM     14  O   UNL     1      12.360   1.450  22.517  0.00  0.00    +0.000 OA
ENDBRANCH   7  14
ENDBRANCH   3  10
ENDBRANCH   1   5
BRANCH   1  15
ATOM     15  C   UNL     1      12.819   4.002  28.950  0.00  0.00    +0.000 C 
ATOM     16  S   UNL     1      12.953   5.615  28.874  0.00  0.00    +0.000 S 
BRANCH  15  17
ATOM     17  N   UNL     1      13.724   3.229  29.812  0.00  0.00    +0.000 N 
ATOM     18  C   UNL     1      14.981   2.695  29.267  0.00  0.00    +0.000 C 
ATOM     19  O   UNL     1      15.763   2.026  30.013  0.00  0.00    +0.000 OA
ATOM     20  H   UNL     1      13.481   3.062  30.789  0.00  0.00    +0.000 HD
BRANCH  18  21
ATOM     21  C   UNL     1      15.343   2.942  27.811  0.00  0.00    +0.000 A 
ATOM     22  C   UNL     1      14.999   1.968  26.808  0.00  0.00    +0.000 A 
ATOM     23  C   UNL     1      14.310   0.760  27.184  0.00  0.00    +0.000 A 
ATOM     24  C   UNL     1      13.965  -0.213  26.181  0.00  0.00    +0.000 A 
ATOM     25  C   UNL     1      13.276  -1.422  26.557  0.00  0.00    +0.000 A 
ATOM     26  C   UNL     1      16.032   4.150  27.436  0.00  0.00    +0.000 A 
ENDBRANCH  18  21
ENDBRANCH  15  17
ENDBRANCH   1  15
TORSDOF 6
ENDMDL
MODEL 2
REMARK VINA RESULT:    -6.023      1.568      2.001
REMARK INTER + INTRA:          -9.497
REMARK INTER:                  -8.417
REMARK INTRA:                  -1.081
REMARK UNBOUND:                -1.362
REMARK  Name = 
REMARK  7 active torsions:
REMARK  status: ('A' for Active; 'I' for Inactive)
REMARK    1  A    between atoms: C_1  and  O_2
REMARK    2  A    between atoms: O_2  and  C_3
REMARK    3  A    between atoms: C_6  and  C_7
REMARK    4  A    between atoms: N_9  and  N_10
REMARK    5  A    between atoms: N_10  and  C_11
REMARK    6  A    between atoms: C_11  and  N_13
REMARK    7  A    between atoms: C_14  and  C_16
REMARK                            x       y       z     vdW  Elec       q    Type
REMARK                         _______ _______ _______ _____ _____    ______ ____
ROOT
ATOM      1  N   UNL     1      11.247   3.625  28.677  0.00  0.00    +0.000 N 
ATOM      2  H   UNL     1      11.737   2.752  28.484  0.00  0.00    +0.000 HD
ENDROOT
BRANCH   1   5
ATOM      3  C   UNL     1       9.870   3.321  26.609  0.00  0.00    +0.000 C 
ATOM      4  O   UNL     1       9.066   3.800  25.749  0.00  0.00    +0.000 OA
ATOM      5  N   UNL     1      10.348   4.161  27.716  0.00  0.00    +0.000 N 
ATOM      6  H   UNL     1      10.033   5.128  27.797  0.00  0.00    +0.000 HD
BRANCH   3  10
ATOM      7  C   UNL     1      12.832  -0.180  24.474  0.00  0.00    +0.000 A 
ATOM      8  C   UNL     1      11.809   0.168  25.426  0.00  0.00    +0.000 A 
ATOM      9  C   UNL     1      11.363   1.533  25.538  0.00  0.00    +0.000 A 
ATOM     10  C   UNL     1      10.339   1.880  26.489  0.00  0.00    +0.000 A 
ATOM     11  C   UNL     1       9.761   0.862  27.329  0.00  0.00    +0.000 A 
ATOM     12  C   UNL     1      13.278  -1.545  24.362  0.00  0.00    +0.000 A 
BRANCH   7  14
ATOM     13  C   UNL     1      12.889   1.044  22.341  0.00  0.00    +0.000 C 
ATOM     14  O   UNL     1      13.402   0.823  23.647  0.00  0.00    +0.000 OA
ENDBRANCH   7  14
ENDBRANCH   3  10
ENDBRANCH   1   5
BRANCH   1  15
ATOM     15  C   UNL     1      11.469   4.329  29.948  0.00  0.00    +0.000 C 
ATOM     16  S   UNL     1      10.719   5.736  30.236  0.00  0.00    +0.000 S 
BRANCH  15  17
ATOM     17  N   UNL     1      12.370   3.756  30.958  0.00  0.00    +0.000 N 
ATOM     18  C   UNL     1      13.818   3.992  30.870  0.00  0.00    +0.000 C 
ATOM     19  O   UNL     1      14.597   3.497  31.743  0.00  0.00    +0.000 OA
ATOM     20  H   UNL     1      11.991   3.194  31.721  0.00  0.00    +0.000 HD
BRANCH  18  21
ATOM     21  C   UNL     1      14.384   4.828  29.733  0.00  0.00    +0.000 A 
ATOM     22  C   UNL     1      14.828   4.189  28.521  0.00  0.00    +0.000 A 
ATOM     23  C   UNL     1      14.736   2.758  28.386  0.00  0.00    +0.000 A 
ATOM     24  C   UNL     1      15.179   2.120  27.174  0.00  0.00    +0.000 A 
ATOM     25  C   UNL     1      15.087   0.688  27.039  0.00  0.00    +0.000 A 
ATOM     26  C   UNL     1      14.476   6.259  29.868  0.00  0.00    +0.000 A 
ENDBRANCH  18  21
ENDBRANCH  15  17
ENDBRANCH   1  15
TORSDOF 6
ENDMDL
MODEL 3
REMARK VINA RESULT:    -5.948      2.246      4.053
REMARK INTER + INTRA:          -9.396
REMARK INTER:                  -8.634
REMARK INTRA:                  -0.762
REMARK UNBOUND:                -1.362
REMARK  Name = 
REMARK  7 active torsions:
REMARK  status: ('A' for Active; 'I' for Inactive)
REMARK    1  A    between atoms: C_1  and  O_2
REMARK    2  A    between atoms: O_2  and  C_3
REMARK    3  A    between atoms: C_6  and  C_7
REMARK    4  A    between atoms: N_9  and  N_10
REMARK    5  A    between atoms: N_10  and  C_11
REMARK    6  A    between atoms: C_11  and  N_13
REMARK    7  A    between atoms: C_14  and  C_16
REMARK                            x       y       z     vdW  Elec       q    Type
REMARK                         _______ _______ _______ _____ _____    ______ ____
ROOT
ATOM      1  N   UNL     1      10.862   3.605  29.005  0.00  0.00    +0.000 N 
ATOM      2  H   UNL     1      10.928   2.594  29.116  0.00  0.00    +0.000 HD
ENDROOT
BRANCH   1   5
ATOM      3  C   UNL     1       9.884   3.268  26.725  0.00  0.00    +0.000 C 
ATOM      4  O   UNL     1       9.362   3.758  25.675  0.00  0.00    +0.000 OA
ATOM      5  N   UNL     1      10.278   4.153  27.831  0.00  0.00    +0.000 N 
ATOM      6  H   UNL     1      10.131   5.159  27.757  0.00  0.00    +0.000 HD
BRANCH   3  10
ATOM      7  C   UNL     1      12.817  -0.808  26.117  0.00  0.00    +0.000 A 
ATOM      8  C   UNL     1      11.564  -0.230  26.530  0.00  0.00    +0.000 A 
ATOM      9  C   UNL     1      11.356   1.191  26.424  0.00  0.00    +0.000 A 
ATOM     10  C   UNL     1      10.103   1.768  26.836  0.00  0.00    +0.000 A 
ATOM     11  C   UNL     1       9.057   0.924  27.355  0.00  0.00    +0.000 A 
ATOM     12  C   UNL     1      13.025  -2.229  26.223  0.00  0.00    +0.000 A 
BRANCH   7  14
ATOM     13  C   UNL     1      15.143  -0.009  26.188  0.00  0.00    +0.000 C 
ATOM     14  O   UNL     1      13.848   0.025  25.606  0.00  0.00    +0.000 OA
ENDBRANCH   7  14
ENDBRANCH   3  10
ENDBRANCH   1   5
BRANCH   1  15
ATOM     15  C   UNL     1      11.370   4.496  30.057  0.00  0.00    +0.000 C 
ATOM     16  S   UNL     1      10.910   6.050  30.094  0.00  0.00    +0.000 S 
BRANCH  15  17
ATOM     17  N   UNL     1      12.294   3.979  31.076  0.00  0.00    +0.000 N 
ATOM     18  C   UNL     1      13.704   3.737  30.735  0.00  0.00    +0.000 C 
ATOM     19  O   UNL     1      14.503   3.289  31.617  0.00  0.00    +0.000 OA
ATOM     20  H   UNL     1      11.958   3.788  32.020  0.00  0.00    +0.000 HD
BRANCH  18  21
ATOM     21  C   UNL     1      14.205   4.021  29.328  0.00  0.00    +0.000 A 
ATOM     22  C   UNL     1      14.553   5.366  28.946  0.00  0.00    +0.000 A 
ATOM     23  C   UNL     1      14.427   6.440  29.897  0.00  0.00    +0.000 A 
ATOM     24  C   UNL     1      14.776   7.784  29.514  0.00  0.00    +0.000 A 
ATOM     25  C   UNL     1      14.650   8.859  30.465  0.00  0.00    +0.000 A 
ATOM     26  C   UNL     1      14.330   2.947  28.378  0.00  0.00    +0.000 A 
ENDBRANCH  18  21
ENDBRANCH  15  17
ENDBRANCH   1  15
TORSDOF 6
ENDMDL
MODEL 4
REMARK VINA RESULT:    -5.915     27.520     31.025
REMARK INTER + INTRA:          -9.352
REMARK INTER:                  -8.308
REMARK INTRA:                  -1.044
REMARK UNBOUND:                -1.362
REMARK  Name = 
REMARK  7 active torsions:
REMARK  status: ('A' for Active; 'I' for Inactive)
REMARK    1  A    between atoms: C_1  and  O_2
REMARK    2  A    between atoms: O_2  and  C_3
REMARK    3  A    between atoms: C_6  and  C_7
REMARK    4  A    between atoms: N_9  and  N_10
REMARK    5  A    between atoms: N_10  and  C_11
REMARK    6  A    between atoms: C_11  and  N_13
REMARK    7  A    between atoms: C_14  and  C_16
REMARK                            x       y       z     vdW  Elec       q    Type
REMARK                         _______ _______ _______ _____ _____    ______ ____
ROOT
ATOM      1  N   UNL     1      37.761  11.307  41.878  0.00  0.00    +0.000 N 
ATOM      2  H   UNL     1      38.063  10.393  42.215  0.00  0.00    +0.000 HD
ENDROOT
BRANCH   1   5
ATOM      3  C   UNL     1      35.446  10.419  41.534  0.00  0.00    +0.000 C 
ATOM      4  O   UNL     1      34.278  10.564  41.054  0.00  0.00    +0.000 OA
ATOM      5  N   UNL     1      36.456  11.469  41.341  0.00  0.00    +0.000 N 
ATOM      6  H   UNL     1      36.220  12.316  40.823  0.00  0.00    +0.000 HD
BRANCH   3  10
ATOM      7  C   UNL     1      36.210   5.421  41.685  0.00  0.00    +0.000 A 
ATOM      8  C   UNL     1      36.172   6.692  42.361  0.00  0.00    +0.000 A 
ATOM      9  C   UNL     1      35.837   7.887  41.630  0.00  0.00    +0.000 A 
ATOM     10  C   UNL     1      35.798   9.158  42.306  0.00  0.00    +0.000 A 
ATOM     11  C   UNL     1      36.095   9.235  43.714  0.00  0.00    +0.000 A 
ATOM     12  C   UNL     1      36.545   4.226  42.416  0.00  0.00    +0.000 A 
BRANCH   7  14
ATOM     13  C   UNL     1      34.663   4.842  39.862  0.00  0.00    +0.000 C 
ATOM     14  O   UNL     1      35.918   5.346  40.298  0.00  0.00    +0.000 OA
ENDBRANCH   7  14
ENDBRANCH   3  10
ENDBRANCH   1   5
BRANCH   1  15
ATOM     15  C   UNL     1      38.675  12.456  41.947  0.00  0.00    +0.000 C 
ATOM     16  S   UNL     1      38.087  13.943  42.208  0.00  0.00    +0.000 S 
BRANCH  15  17
ATOM     17  N   UNL     1      40.122  12.255  41.782  0.00  0.00    +0.000 N 
ATOM     18  C   UNL     1      40.974  12.040  42.960  0.00  0.00    +0.000 C 
ATOM     19  O   UNL     1      42.225  11.867  42.817  0.00  0.00    +0.000 OA
ATOM     20  H   UNL     1      40.535  12.266  40.849  0.00  0.00    +0.000 HD
BRANCH  18  21
ATOM     21  C   UNL     1      40.358  12.025  44.351  0.00  0.00    +0.000 A 
ATOM     22  C   UNL     1      39.886  10.787  44.915  0.00  0.00    +0.000 A 
ATOM     23  C   UNL     1      39.998   9.563  44.164  0.00  0.00    +0.000 A 
ATOM     24  C   UNL     1      39.527   8.326  44.729  0.00  0.00    +0.000 A 
ATOM     25  C   UNL     1      39.639   7.102  43.978  0.00  0.00    +0.000 A 
ATOM     26  C   UNL     1      40.246  13.248  45.102  0.00  0.00    +0.000 A 
ENDBRANCH  18  21
ENDBRANCH  15  17
ENDBRANCH   1  15
TORSDOF 6
ENDMDL
MODEL 5
REMARK VINA RESULT:    -5.885     19.975     21.712
REMARK INTER + INTRA:          -9.311
REMARK INTER:                  -7.927
REMARK INTRA:                  -1.384
REMARK UNBOUND:                -1.362
REMARK  Name = 
REMARK  7 active torsions:
REMARK  status: ('A' for Active; 'I' for Inactive)
REMARK    1  A    between atoms: C_1  and  O_2
REMARK    2  A    between atoms: O_2  and  C_3
REMARK    3  A    between atoms: C_6  and  C_7
REMARK    4  A    between atoms: N_9  and  N_10
REMARK    5  A    between atoms: N_10  and  C_11
REMARK    6  A    between atoms: C_11  and  N_13
REMARK    7  A    between atoms: C_14  and  C_16
REMARK                            x       y       z     vdW  Elec       q    Type
REMARK                         _______ _______ _______ _____ _____    ______ ____
ROOT
ATOM      1  N   UNL     1      30.143  -7.097  26.538  0.00  0.00    +0.000 N 
ATOM      2  H   UNL     1      30.995  -6.975  25.992  0.00  0.00    +0.000 HD
ENDROOT
BRANCH   1   5
ATOM      3  C   UNL     1      28.825  -7.888  24.563  0.00  0.00    +0.000 C 
ATOM      4  O   UNL     1      27.706  -8.017  23.974  0.00  0.00    +0.000 OA
ATOM      5  N   UNL     1      28.892  -7.241  25.881  0.00  0.00    +0.000 N 
ATOM      6  H   UNL     1      28.040  -6.896  26.324  0.00  0.00    +0.000 HD
BRANCH   3  10
ATOM      7  C   UNL     1      32.683  -7.253  21.354  0.00  0.00    +0.000 A 
ATOM      8  C   UNL     1      31.991  -8.070  22.316  0.00  0.00    +0.000 A 
ATOM      9  C   UNL     1      30.788  -7.584  22.941  0.00  0.00    +0.000 A 
ATOM     10  C   UNL     1      30.094  -8.402  23.903  0.00  0.00    +0.000 A 
ATOM     11  C   UNL     1      30.605  -9.706  24.241  0.00  0.00    +0.000 A 
ATOM     12  C   UNL     1      33.886  -7.739  20.729  0.00  0.00    +0.000 A 
BRANCH   7  14
ATOM     13  C   UNL     1      32.664  -4.817  21.698  0.00  0.00    +0.000 C 
ATOM     14  O   UNL     1      32.179  -5.968  21.020  0.00  0.00    +0.000 OA
ENDBRANCH   7  14
ENDBRANCH   3  10
ENDBRANCH   1   5
BRANCH   1  15
ATOM     15  C   UNL     1      30.208  -7.124  28.007  0.00  0.00    +0.000 C 
ATOM     16  S   UNL     1      28.908  -7.567  28.867  0.00  0.00    +0.000 S 
BRANCH  15  17
ATOM     17  N   UNL     1      31.451  -6.749  28.695  0.00  0.00    +0.000 N 
ATOM     18  C   UNL     1      32.485  -7.764  28.948  0.00  0.00    +0.000 C 
ATOM     19  O   UNL     1      33.561  -7.440  29.543  0.00  0.00    +0.000 OA
ATOM     20  H   UNL     1      31.598  -5.786  28.997  0.00  0.00    +0.000 HD
BRANCH  18  21
ATOM     21  C   UNL     1      32.267  -9.200  28.498  0.00  0.00    +0.000 A 
ATOM     22  C   UNL     1      32.844  -9.663  27.262  0.00  0.00    +0.000 A 
ATOM     23  C   UNL     1      33.627  -8.766  26.453  0.00  0.00    +0.000 A 
ATOM     24  C   UNL     1      34.204  -9.229  25.217  0.00  0.00    +0.000 A 
ATOM     25  C   UNL     1      34.988  -8.332  24.407  0.00  0.00    +0.000 A 
ATOM     26  C   UNL     1      31.484 -10.097  29.308  0.00  0.00    +0.000 A 
ENDBRANCH  18  21
ENDBRANCH  15  17
ENDBRANCH   1  15
TORSDOF 6
ENDMDL
MODEL 6
REMARK VINA RESULT:    -5.862     17.846     20.532
REMARK INTER + INTRA:          -9.280
REMARK INTER:                  -7.690
REMARK INTRA:                  -1.590
REMARK UNBOUND:                -1.362
REMARK  Name = 
REMARK  7 active torsions:
REMARK  status: ('A' for Active; 'I' for Inactive)
REMARK    1  A    between atoms: C_1  and  O_2
REMARK    2  A    between atoms: O_2  and  C_3
REMARK    3  A    between atoms: C_6  and  C_7
REMARK    4  A    between atoms: N_9  and  N_10
REMARK    5  A    between atoms: N_10  and  C_11
REMARK    6  A    between atoms: C_11  and  N_13
REMARK    7  A    between atoms: C_14  and  C_16
REMARK                            x       y       z     vdW  Elec       q    Type
REMARK                         _______ _______ _______ _____ _____    ______ ____
ROOT
ATOM      1  N   UNL     1      29.858  -7.556  28.859  0.00  0.00    +0.000 N 
ATOM      2  H   UNL     1      28.942  -7.334  29.247  0.00  0.00    +0.000 HD
ENDROOT
BRANCH   1   5
ATOM      3  C   UNL     1      31.034  -8.814  30.675  0.00  0.00    +0.000 C 
ATOM      4  O   UNL     1      32.036  -8.941  31.446  0.00  0.00    +0.000 OA
ATOM      5  N   UNL     1      30.978  -7.698  29.720  0.00  0.00    +0.000 N 
ATOM      6  H   UNL     1      31.744  -7.026  29.674  0.00  0.00    +0.000 HD
BRANCH   3  10
ATOM      7  C   UNL     1      26.753 -10.470  32.802  0.00  0.00    +0.000 A 
ATOM      8  C   UNL     1      27.781 -10.615  31.803  0.00  0.00    +0.000 A 
ATOM      9  C   UNL     1      28.864  -9.668  31.740  0.00  0.00    +0.000 A 
ATOM     10  C   UNL     1      29.892  -9.815  30.742  0.00  0.00    +0.000 A 
ATOM     11  C   UNL     1      29.837 -10.909  29.807  0.00  0.00    +0.000 A 
ATOM     12  C   UNL     1      25.671 -11.417  32.865  0.00  0.00    +0.000 A 
BRANCH   7  14
ATOM     13  C   UNL     1      25.668  -9.069  34.508  0.00  0.00    +0.000 C 
ATOM     14  O   UNL     1      26.808  -9.391  33.724  0.00  0.00    +0.000 OA
ENDBRANCH   7  14
ENDBRANCH   3  10
ENDBRANCH   1   5
BRANCH   1  15
ATOM     15  C   UNL     1      30.020  -7.729  27.408  0.00  0.00    +0.000 C 
ATOM     16  S   UNL     1      31.287  -8.557  26.828  0.00  0.00    +0.000 S 
BRANCH  15  17
ATOM     17  N   UNL     1      29.034  -7.153  26.483  0.00  0.00    +0.000 N 
ATOM     18  C   UNL     1      27.962  -7.995  25.933  0.00  0.00    +0.000 C 
ATOM     19  O   UNL     1      27.109  -7.496  25.134  0.00  0.00    +0.000 OA
ATOM     20  H   UNL     1      29.093  -6.168  26.223  0.00  0.00    +0.000 HD
BRANCH  18  21
ATOM     21  C   UNL     1      27.874  -9.463  26.321  0.00  0.00    +0.000 A 
ATOM     22  C   UNL     1      27.128  -9.855  27.489  0.00  0.00    +0.000 A 
ATOM     23  C   UNL     1      26.466  -8.858  28.289  0.00  0.00    +0.000 A 
ATOM     24  C   UNL     1      25.721  -9.252  29.457  0.00  0.00    +0.000 A 
ATOM     25  C   UNL     1      25.058  -8.254  30.258  0.00  0.00    +0.000 A 
ATOM     26  C   UNL     1      28.536 -10.460  25.520  0.00  0.00    +0.000 A 
ENDBRANCH  18  21
ENDBRANCH  15  17
ENDBRANCH   1  15
TORSDOF 6
ENDMDL
MODEL 7
REMARK VINA RESULT:    -5.859     19.398     21.739
REMARK INTER + INTRA:          -9.276
REMARK INTER:                  -8.633
REMARK INTRA:                  -0.642
REMARK UNBOUND:                -1.362
REMARK  Name = 
REMARK  7 active torsions:
REMARK  status: ('A' for Active; 'I' for Inactive)
REMARK    1  A    between atoms: C_1  and  O_2
REMARK    2  A    between atoms: O_2  and  C_3
REMARK    3  A    between atoms: C_6  and  C_7
REMARK    4  A    between atoms: N_9  and  N_10
REMARK    5  A    between atoms: N_10  and  C_11
REMARK    6  A    between atoms: C_11  and  N_13
REMARK    7  A    between atoms: C_14  and  C_16
REMARK                            x       y       z     vdW  Elec       q    Type
REMARK                         _______ _______ _______ _____ _____    ______ ____
ROOT
ATOM      1  N   UNL     1      30.085 -10.318  28.622  0.00  0.00    +0.000 N 
ATOM      2  H   UNL     1      30.730 -10.182  27.844  0.00  0.00    +0.000 HD
ENDROOT
BRANCH   1   5
ATOM      3  C   UNL     1      31.650  -9.191  30.218  0.00  0.00    +0.000 C 
ATOM      4  O   UNL     1      32.044  -8.995  31.410  0.00  0.00    +0.000 OA
ATOM      5  N   UNL     1      30.525 -10.100  29.955  0.00  0.00    +0.000 N 
ATOM      6  H   UNL     1      30.059 -10.574  30.729  0.00  0.00    +0.000 HD
BRANCH   3  10
ATOM      7  C   UNL     1      34.232  -9.360  25.871  0.00  0.00    +0.000 A 
ATOM      8  C   UNL     1      33.615  -8.589  26.920  0.00  0.00    +0.000 A 
ATOM      9  C   UNL     1      32.959  -9.257  28.014  0.00  0.00    +0.000 A 
ATOM     10  C   UNL     1      32.343  -8.486  29.064  0.00  0.00    +0.000 A 
ATOM     11  C   UNL     1      32.383  -7.046  29.018  0.00  0.00    +0.000 A 
ATOM     12  C   UNL     1      34.888  -8.692  24.777  0.00  0.00    +0.000 A 
BRANCH   7  14
ATOM     13  C   UNL     1      35.353 -11.510  26.283  0.00  0.00    +0.000 C 
ATOM     14  O   UNL     1      34.192 -10.779  25.916  0.00  0.00    +0.000 OA
ENDBRANCH   7  14
ENDBRANCH   3  10
ENDBRANCH   1   5
BRANCH   1  15
ATOM     15  C   UNL     1      28.701 -10.741  28.366  0.00  0.00    +0.000 C 
ATOM     16  S   UNL     1      28.006 -11.856  29.314  0.00  0.00    +0.000 S 
BRANCH  15  17
ATOM     17  N   UNL     1      27.946 -10.151  27.251  0.00  0.00    +0.000 N 
ATOM     18  C   UNL     1      27.416  -8.784  27.363  0.00  0.00    +0.000 C 
ATOM     19  O   UNL     1      26.764  -8.274  26.399  0.00  0.00    +0.000 OA
ATOM     20  H   UNL     1      27.790 -10.689  26.398  0.00  0.00    +0.000 HD
BRANCH  18  21
ATOM     21  C   UNL     1      27.648  -7.981  28.634  0.00  0.00    +0.000 A 
ATOM     22  C   UNL     1      26.734  -8.106  29.740  0.00  0.00    +0.000 A 
ATOM     23  C   UNL     1      25.602  -8.991  29.644  0.00  0.00    +0.000 A 
ATOM     24  C   UNL     1      24.689  -9.115  30.750  0.00  0.00    +0.000 A 
ATOM     25  C   UNL     1      23.556 -10.000  30.653  0.00  0.00    +0.000 A 
ATOM     26  C   UNL     1      28.780  -7.097  28.731  0.00  0.00    +0.000 A 
ENDBRANCH  18  21
ENDBRANCH  15  17
ENDBRANCH   1  15
TORSDOF 6
ENDMDL
MODEL 8
REMARK VINA RESULT:    -5.850      3.650      6.198
REMARK INTER + INTRA:          -9.264
REMARK INTER:                  -8.944
REMARK INTRA:                  -0.320
REMARK UNBOUND:                -1.362
REMARK  Name = 
REMARK  7 active torsions:
REMARK  status: ('A' for Active; 'I' for Inactive)
REMARK    1  A    between atoms: C_1  and  O_2
REMARK    2  A    between atoms: O_2  and  C_3
REMARK    3  A    between atoms: C_6  and  C_7
REMARK    4  A    between atoms: N_9  and  N_10
REMARK    5  A    between atoms: N_10  and  C_11
REMARK    6  A    between atoms: C_11  and  N_13
REMARK    7  A    between atoms: C_14  and  C_16
REMARK                            x       y       z     vdW  Elec       q    Type
REMARK                         _______ _______ _______ _____ _____    ______ ____
ROOT
ATOM      1  N   UNL     1      14.086   5.396  30.529  0.00  0.00    +0.000 N 
ATOM      2  H   UNL     1      14.710   6.009  30.006  0.00  0.00    +0.000 HD
ENDROOT
BRANCH   1   5
ATOM      3  C   UNL     1      12.915   7.202  31.806  0.00  0.00    +0.000 C 
ATOM      4  O   UNL     1      12.382   7.611  32.885  0.00  0.00    +0.000 OA
ATOM      5  N   UNL     1      13.491   5.852  31.735  0.00  0.00    +0.000 N 
ATOM      6  H   UNL     1      13.461   5.241  32.552  0.00  0.00    +0.000 HD
BRANCH   3  10
ATOM      7  C   UNL     1      10.819   8.977  27.558  0.00  0.00    +0.000 A 
ATOM      8  C   UNL     1      11.910   8.976  28.498  0.00  0.00    +0.000 A 
ATOM      9  C   UNL     1      11.868   8.114  29.650  0.00  0.00    +0.000 A 
ATOM     10  C   UNL     1      12.960   8.112  30.589  0.00  0.00    +0.000 A 
ATOM     11  C   UNL     1      14.095   8.975  30.376  0.00  0.00    +0.000 A 
ATOM     12  C   UNL     1      10.861   9.840  26.406  0.00  0.00    +0.000 A 
BRANCH   7  14
ATOM     13  C   UNL     1       8.480   8.377  27.087  0.00  0.00    +0.000 C 
ATOM     14  O   UNL     1       9.701   8.127  27.768  0.00  0.00    +0.000 OA
ENDBRANCH   7  14
ENDBRANCH   3  10
ENDBRANCH   1   5
BRANCH   1  15
ATOM     15  C   UNL     1      13.803   4.040  30.037  0.00  0.00    +0.000 C 
ATOM     16  S   UNL     1      12.425   3.739  29.240  0.00  0.00    +0.000 S 
BRANCH  15  17
ATOM     17  N   UNL     1      14.771   2.957  30.267  0.00  0.00    +0.000 N 
ATOM     18  C   UNL     1      15.599   2.464  29.157  0.00  0.00    +0.000 C 
ATOM     19  O   UNL     1      16.435   1.528  29.356  0.00  0.00    +0.000 OA
ATOM     20  H   UNL     1      14.868   2.548  31.196  0.00  0.00    +0.000 HD
BRANCH  18  21
ATOM     21  C   UNL     1      15.455   3.073  27.771  0.00  0.00    +0.000 A 
ATOM     22  C   UNL     1      14.826   2.321  26.716  0.00  0.00    +0.000 A 
ATOM     23  C   UNL     1      14.333   0.993  26.974  0.00  0.00    +0.000 A 
ATOM     24  C   UNL     1      13.703   0.242  25.919  0.00  0.00    +0.000 A 
ATOM     25  C   UNL     1      13.211  -1.087  26.176  0.00  0.00    +0.000 A 
ATOM     26  C   UNL     1      15.947   4.402  27.514  0.00  0.00    +0.000 A 
ENDBRANCH  18  21
ENDBRANCH  15  17
ENDBRANCH   1  15
TORSDOF 6
ENDMDL
MODEL 9
REMARK VINA RESULT:    -5.826      1.912      3.044
REMARK INTER + INTRA:          -9.231
REMARK INTER:                  -7.944
REMARK INTRA:                  -1.287
REMARK UNBOUND:                -1.362
REMARK  Name = 
REMARK  7 active torsions:
REMARK  status: ('A' for Active; 'I' for Inactive)
REMARK    1  A    between atoms: C_1  and  O_2
REMARK    2  A    between atoms: O_2  and  C_3
REMARK    3  A    between atoms: C_6  and  C_7
REMARK    4  A    between atoms: N_9  and  N_10
REMARK    5  A    between atoms: N_10  and  C_11
REMARK    6  A    between atoms: C_11  and  N_13
REMARK    7  A    between atoms: C_14  and  C_16
REMARK                            x       y       z     vdW  Elec       q    Type
REMARK                         _______ _______ _______ _____ _____    ______ ____
ROOT
ATOM      1  N   UNL     1      11.677   3.600  27.999  0.00  0.00    +0.000 N 
ATOM      2  H   UNL     1      11.900   2.679  27.625  0.00  0.00    +0.000 HD
ENDROOT
BRANCH   1   5
ATOM      3  C   UNL     1       9.465   3.511  26.832  0.00  0.00    +0.000 C 
ATOM      4  O   UNL     1       8.353   4.059  26.550  0.00  0.00    +0.000 OA
ATOM      5  N   UNL     1      10.435   4.213  27.684  0.00  0.00    +0.000 N 
ATOM      6  H   UNL     1      10.217   5.140  28.051  0.00  0.00    +0.000 HD
BRANCH   3  10
ATOM      7  C   UNL     1       9.003  -1.522  27.030  0.00  0.00    +0.000 A 
ATOM      8  C   UNL     1       9.551  -0.350  26.399  0.00  0.00    +0.000 A 
ATOM      9  C   UNL     1       9.242   0.958  26.917  0.00  0.00    +0.000 A 
ATOM     10  C   UNL     1       9.792   2.130  26.286  0.00  0.00    +0.000 A 
ATOM     11  C   UNL     1      10.650   1.995  25.137  0.00  0.00    +0.000 A 
ATOM     12  C   UNL     1       9.311  -2.830  26.512  0.00  0.00    +0.000 A 
BRANCH   7  14
ATOM     13  C   UNL     1       6.753  -1.557  28.026  0.00  0.00    +0.000 C 
ATOM     14  O   UNL     1       8.157  -1.389  28.163  0.00  0.00    +0.000 OA
ENDBRANCH   7  14
ENDBRANCH   3  10
ENDBRANCH   1   5
BRANCH   1  15
ATOM     15  C   UNL     1      12.641   4.296  28.865  0.00  0.00    +0.000 C 
ATOM     16  S   UNL     1      12.737   5.913  28.834  0.00  0.00    +0.000 S 
BRANCH  15  17
ATOM     17  N   UNL     1      13.517   3.525  29.759  0.00  0.00    +0.000 N 
ATOM     18  C   UNL     1      14.766   2.945  29.244  0.00  0.00    +0.000 C 
ATOM     19  O   UNL     1      15.523   2.278  30.017  0.00  0.00    +0.000 OA
ATOM     20  H   UNL     1      13.259   3.392  30.736  0.00  0.00    +0.000 HD
BRANCH  18  21
ATOM     21  C   UNL     1      15.151   3.143  27.786  0.00  0.00    +0.000 A 
ATOM     22  C   UNL     1      14.806   2.143  26.809  0.00  0.00    +0.000 A 
ATOM     23  C   UNL     1      14.096   0.956  27.212  0.00  0.00    +0.000 A 
ATOM     24  C   UNL     1      13.751  -0.043  26.234  0.00  0.00    +0.000 A 
ATOM     25  C   UNL     1      13.041  -1.230  26.637  0.00  0.00    +0.000 A 
ATOM     26  C   UNL     1      15.861   4.329  27.383  0.00  0.00    +0.000 A 
ENDBRANCH  18  21
ENDBRANCH  15  17
ENDBRANCH   1  15
TORSDOF 6
ENDMDL
MODEL 10
REMARK VINA RESULT:    -5.767     16.648     18.469
REMARK INTER + INTRA:          -9.152
REMARK INTER:                  -7.218
REMARK INTRA:                  -1.934
REMARK UNBOUND:                -1.362
REMARK  Name = 
REMARK  7 active torsions:
REMARK  status: ('A' for Active; 'I' for Inactive)
REMARK    1  A    between atoms: C_1  and  O_2
REMARK    2  A    between atoms: O_2  and  C_3
REMARK    3  A    between atoms: C_6  and  C_7
REMARK    4  A    between atoms: N_9  and  N_10
REMARK    5  A    between atoms: N_10  and  C_11
REMARK    6  A    between atoms: C_11  and  N_13
REMARK    7  A    between atoms: C_14  and  C_16
REMARK                            x       y       z     vdW  Elec       q    Type
REMARK                         _______ _______ _______ _____ _____    ______ ____
ROOT
ATOM      1  N   UNL     1      20.344  -9.697  34.127  0.00  0.00    +0.000 N 
ATOM      2  H   UNL     1      20.874  -9.789  33.261  0.00  0.00    +0.000 HD
ENDROOT
BRANCH   1   5
ATOM      3  C   UNL     1      21.606  -8.188  35.675  0.00  0.00    +0.000 C 
ATOM      4  O   UNL     1      21.666  -7.110  36.345  0.00  0.00    +0.000 OA
ATOM      5  N   UNL     1      20.410  -8.492  34.876  0.00  0.00    +0.000 N 
ATOM      6  H   UNL     1      19.629  -7.837  34.857  0.00  0.00    +0.000 HD
BRANCH   3  10
ATOM      7  C   UNL     1      26.123  -9.701  33.972  0.00  0.00    +0.000 A 
ATOM      8  C   UNL     1      24.998  -9.895  34.851  0.00  0.00    +0.000 A 
ATOM      9  C   UNL     1      23.895  -8.970  34.824  0.00  0.00    +0.000 A 
ATOM     10  C   UNL     1      22.770  -9.165  35.702  0.00  0.00    +0.000 A 
ATOM     11  C   UNL     1      22.749 -10.285  36.608  0.00  0.00    +0.000 A 
ATOM     12  C   UNL     1      27.226 -10.626  33.998  0.00  0.00    +0.000 A 
BRANCH   7  14
ATOM     13  C   UNL     1      26.475  -8.794  31.712  0.00  0.00    +0.000 C 
ATOM     14  O   UNL     1      26.143  -8.597  33.079  0.00  0.00    +0.000 OA
ENDBRANCH   7  14
ENDBRANCH   3  10
ENDBRANCH   1   5
BRANCH   1  15
ATOM     15  C   UNL     1      19.512 -10.812  34.602  0.00  0.00    +0.000 C 
ATOM     16  S   UNL     1      18.980 -10.831  36.133  0.00  0.00    +0.000 S 
BRANCH  15  17
ATOM     17  N   UNL     1      19.161 -11.909  33.689  0.00  0.00    +0.000 N 
ATOM     18  C   UNL     1      20.108 -13.011  33.466  0.00  0.00    +0.000 C 
ATOM     19  O   UNL     1      19.805 -13.960  32.676  0.00  0.00    +0.000 OA
ATOM     20  H   UNL     1      18.261 -11.907  33.210  0.00  0.00    +0.000 HD
BRANCH  18  21
ATOM     21  C   UNL     1      21.451 -13.015  34.179  0.00  0.00    +0.000 A 
ATOM     22  C   UNL     1      22.593 -12.387  33.567  0.00  0.00    +0.000 A 
ATOM     23  C   UNL     1      22.464 -11.755  32.279  0.00  0.00    +0.000 A 
ATOM     24  C   UNL     1      23.606 -11.127  31.667  0.00  0.00    +0.000 A 
ATOM     25  C   UNL     1      23.476 -10.495  30.379  0.00  0.00    +0.000 A 
ATOM     26  C   UNL     1      21.581 -13.647  35.467  0.00  0.00    +0.000 A 
ENDBRANCH  18  21
ENDBRANCH  15  17
ENDBRANCH   1  15
TORSDOF 6
ENDMDL
