MODEL 1
REMARK VINA RESULT:    -7.107      0.000      0.000
REMARK INTER + INTRA:         -10.005
REMARK INTER:                 -10.015
REMARK INTRA:                   0.010
REMARK UNBOUND:                 0.010
REMARK  Name = 
REMARK  9 active torsions:
REMARK  status: ('A' for Active; 'I' for Inactive)
REMARK    1  A    between atoms: C_1  and  O_2
REMARK    2  A    between atoms: O_2  and  C_3
REMARK    3  A    between atoms: C_6  and  C_7
REMARK    4  A    between atoms: N_9  and  N_10
REMARK    5  A    between atoms: N_10  and  C_11
REMARK    6  A    between atoms: C_11  and  N_13
REMARK    7  A    between atoms: C_14  and  C_16
REMARK    8  A    between atoms: C_19  and  O_20
REMARK    9  A    between atoms: O_20  and  C_21
REMARK                            x       y       z     vdW  Elec       q    Type
REMARK                         _______ _______ _______ _____ _____    ______ ____
ROOT
ATOM      1  N   UNL     1      36.284  10.609  42.162  0.00  0.00    +0.000 N 
ATOM      2  H   UNL     1      36.318   9.963  42.949  0.00  0.00    +0.000 HD
ENDROOT
BRANCH   1   5
ATOM      3  C   UNL     1      35.210   8.838  40.756  0.00  0.00    +0.000 C 
ATOM      4  O   UNL     1      34.618   8.500  39.684  0.00  0.00    +0.000 OA
ATOM      5  N   UNL     1      35.623  10.233  40.962  0.00  0.00    +0.000 N 
ATOM      6  H   UNL     1      35.434  10.931  40.243  0.00  0.00    +0.000 HD
BRANCH   3  10
ATOM      7  C   UNL     1      36.230   4.067  42.100  0.00  0.00    +0.000 A 
ATOM      8  C   UNL     1      35.994   5.440  42.471  0.00  0.00    +0.000 A 
ATOM      9  C   UNL     1      35.727   6.425  41.456  0.00  0.00    +0.000 A 
ATOM     10  C   UNL     1      35.491   7.797  41.828  0.00  0.00    +0.000 A 
ATOM     11  C   UNL     1      35.522   8.182  43.216  0.00  0.00    +0.000 A 
ATOM     12  C   UNL     1      36.496   3.082  43.114  0.00  0.00    +0.000 A 
BRANCH   7  14
ATOM     13  C   UNL     1      35.055   3.036  40.201  0.00  0.00    +0.000 C 
ATOM     14  O   UNL     1      36.200   3.688  40.731  0.00  0.00    +0.000 OA
ENDBRANCH   7  14
ENDBRANCH   3  10
ENDBRANCH   1   5
BRANCH   1  15
ATOM     15  C   UNL     1      36.920  11.931  42.267  0.00  0.00    +0.000 C 
ATOM     16  S   UNL     1      38.212  12.282  41.355  0.00  0.00    +0.000 S 
BRANCH  15  17
ATOM     17  N   UNL     1      36.382  12.933  43.199  0.00  0.00    +0.000 N 
ATOM     18  C   UNL     1      36.774  12.905  44.615  0.00  0.00    +0.000 C 
ATOM     19  O   UNL     1      36.310  13.771  45.420  0.00  0.00    +0.000 OA
ATOM     20  H   UNL     1      35.738  13.648  42.861  0.00  0.00    +0.000 HD
BRANCH  18  21
ATOM     21  C   UNL     1      37.734  11.838  45.116  0.00  0.00    +0.000 A 
ATOM     22  C   UNL     1      39.156  12.060  45.045  0.00  0.00    +0.000 A 
ATOM     23  C   UNL     1      39.667  13.291  44.501  0.00  0.00    +0.000 A 
ATOM     24  C   UNL     1      41.088  13.513  44.430  0.00  0.00    +0.000 A 
ATOM     25  C   UNL     1      41.999  12.503  44.906  0.00  0.00    +0.000 A 
ATOM     26  C   UNL     1      37.224  10.607  45.660  0.00  0.00    +0.000 A 
BRANCH  24  27
ATOM     27  O   UNL     1      41.592  14.728  43.893  0.00  0.00    +0.000 OA
ATOM     28  C   UNL     1      41.547  14.957  42.493  0.00  0.00    +0.000 C 
ENDBRANCH  24  27
ENDBRANCH  18  21
ENDBRANCH  15  17
ENDBRANCH   1  15
TORSDOF 7
ENDMDL
MODEL 2
REMARK VINA RESULT:    -7.089      2.146      2.905
REMARK INTER + INTRA:          -9.980
REMARK INTER:                  -9.265
REMARK INTRA:                  -0.716
REMARK UNBOUND:                 0.010
REMARK  Name = 
REMARK  9 active torsions:
REMARK  status: ('A' for Active; 'I' for Inactive)
REMARK    1  A    between atoms: C_1  and  O_2
REMARK    2  A    between atoms: O_2  and  C_3
REMARK    3  A    between atoms: C_6  and  C_7
REMARK    4  A    between atoms: N_9  and  N_10
REMARK    5  A    between atoms: N_10  and  C_11
REMARK    6  A    between atoms: C_11  and  N_13
REMARK    7  A    between atoms: C_14  and  C_16
REMARK    8  A    between atoms: C_19  and  O_20
REMARK    9  A    between atoms: O_20  and  C_21
REMARK                            x       y       z     vdW  Elec       q    Type
REMARK                         _______ _______ _______ _____ _____    ______ ____
ROOT
ATOM      1  N   UNL     1      37.261  10.916  41.822  0.00  0.00    +0.000 N 
ATOM      2  H   UNL     1      37.803  10.058  41.733  0.00  0.00    +0.000 HD
ENDROOT
BRANCH   1   5
ATOM      3  C   UNL     1      35.023   9.885  41.379  0.00  0.00    +0.000 C 
ATOM      4  O   UNL     1      33.866   9.962  40.860  0.00  0.00    +0.000 OA
ATOM      5  N   UNL     1      35.968  11.003  41.241  0.00  0.00    +0.000 N 
ATOM      6  H   UNL     1      35.694  11.841  40.728  0.00  0.00    +0.000 HD
BRANCH   3  10
ATOM      7  C   UNL     1      35.961   4.915  41.511  0.00  0.00    +0.000 A 
ATOM      8  C   UNL     1      35.889   6.184  42.189  0.00  0.00    +0.000 A 
ATOM      9  C   UNL     1      35.502   7.367  41.465  0.00  0.00    +0.000 A 
ATOM     10  C   UNL     1      35.431   8.636  42.143  0.00  0.00    +0.000 A 
ATOM     11  C   UNL     1      35.746   8.721  43.546  0.00  0.00    +0.000 A 
ATOM     12  C   UNL     1      36.347   3.733  42.235  0.00  0.00    +0.000 A 
BRANCH   7  14
ATOM     13  C   UNL     1      34.390   4.325  39.713  0.00  0.00    +0.000 C 
ATOM     14  O   UNL     1      35.650   4.831  40.127  0.00  0.00    +0.000 OA
ENDBRANCH   7  14
ENDBRANCH   3  10
ENDBRANCH   1   5
BRANCH   1  15
ATOM     15  C   UNL     1      37.817  12.065  42.552  0.00  0.00    +0.000 C 
ATOM     16  S   UNL     1      36.829  13.071  43.351  0.00  0.00    +0.000 S 
BRANCH  15  17
ATOM     17  N   UNL     1      39.268  12.301  42.558  0.00  0.00    +0.000 N 
ATOM     18  C   UNL     1      40.119  11.620  43.544  0.00  0.00    +0.000 C 
ATOM     19  O   UNL     1      41.373  11.822  43.549  0.00  0.00    +0.000 OA
ATOM     20  H   UNL     1      39.683  12.936  41.878  0.00  0.00    +0.000 HD
BRANCH  18  21
ATOM     21  C   UNL     1      39.498  10.672  44.558  0.00  0.00    +0.000 A 
ATOM     22  C   UNL     1      39.126  11.157  45.862  0.00  0.00    +0.000 A 
ATOM     23  C   UNL     1      39.342  12.539  46.206  0.00  0.00    +0.000 A 
ATOM     24  C   UNL     1      38.971  13.024  47.510  0.00  0.00    +0.000 A 
ATOM     25  C   UNL     1      38.381  12.127  48.471  0.00  0.00    +0.000 A 
ATOM     26  C   UNL     1      39.281   9.291  44.215  0.00  0.00    +0.000 A 
BRANCH  24  27
ATOM     27  O   UNL     1      39.184  14.387  47.849  0.00  0.00    +0.000 OA
ATOM     28  C   UNL     1      39.179  14.788  49.210  0.00  0.00    +0.000 C 
ENDBRANCH  24  27
ENDBRANCH  18  21
ENDBRANCH  15  17
ENDBRANCH   1  15
TORSDOF 7
ENDMDL
MODEL 3
REMARK VINA RESULT:    -7.034     24.171     25.627
REMARK INTER + INTRA:          -9.902
REMARK INTER:                  -8.844
REMARK INTRA:                  -1.058
REMARK UNBOUND:                 0.010
REMARK  Name = 
REMARK  9 active torsions:
REMARK  status: ('A' for Active; 'I' for Inactive)
REMARK    1  A    between atoms: C_1  and  O_2
REMARK    2  A    between atoms: O_2  and  C_3
REMARK    3  A    between atoms: C_6  and  C_7
REMARK    4  A    between atoms: N_9  and  N_10
REMARK    5  A    between atoms: N_10  and  C_11
REMARK    6  A    between atoms: C_11  and  N_13
REMARK    7  A    between atoms: C_14  and  C_16
REMARK    8  A    between atoms: C_19  and  O_20
REMARK    9  A    between atoms: O_20  and  C_21
REMARK                            x       y       z     vdW  Elec       q    Type
REMARK                         _______ _______ _______ _____ _____    ______ ____
ROOT
ATOM      1  N   UNL     1      28.716 -10.678  32.243  0.00  0.00    +0.000 N 
ATOM      2  H   UNL     1      28.763 -11.468  31.600  0.00  0.00    +0.000 HD
ENDROOT
BRANCH   1   5
ATOM      3  C   UNL     1      30.198  -9.360  30.716  0.00  0.00    +0.000 C 
ATOM      4  O   UNL     1      30.740  -8.254  30.402  0.00  0.00    +0.000 OA
ATOM      5  N   UNL     1      29.323  -9.442  31.894  0.00  0.00    +0.000 N 
ATOM      6  H   UNL     1      29.151  -8.612  32.460  0.00  0.00    +0.000 HD
BRANCH   3  10
ATOM      7  C   UNL     1      32.735 -13.651  29.851  0.00  0.00    +0.000 A 
ATOM      8  C   UNL     1      31.716 -12.710  29.462  0.00  0.00    +0.000 A 
ATOM      9  C   UNL     1      31.474 -11.537  30.261  0.00  0.00    +0.000 A 
ATOM     10  C   UNL     1      30.454 -10.597  29.872  0.00  0.00    +0.000 A 
ATOM     11  C   UNL     1      29.677 -10.831  28.681  0.00  0.00    +0.000 A 
ATOM     12  C   UNL     1      32.978 -14.822  29.052  0.00  0.00    +0.000 A 
BRANCH   7  14
ATOM     13  C   UNL     1      33.360 -14.281  32.145  0.00  0.00    +0.000 C 
ATOM     14  O   UNL     1      33.502 -13.420  31.025  0.00  0.00    +0.000 OA
ENDBRANCH   7  14
ENDBRANCH   3  10
ENDBRANCH   1   5
BRANCH   1  15
ATOM     15  C   UNL     1      28.022 -10.818  33.531  0.00  0.00    +0.000 C 
ATOM     16  S   UNL     1      27.934 -12.266  34.251  0.00  0.00    +0.000 S 
BRANCH  15  17
ATOM     17  N   UNL     1      27.408  -9.642  34.167  0.00  0.00    +0.000 N 
ATOM     18  C   UNL     1      26.022  -9.273  33.847  0.00  0.00    +0.000 C 
ATOM     19  O   UNL     1      25.492  -8.258  34.396  0.00  0.00    +0.000 OA
ATOM     20  H   UNL     1      27.945  -9.084  34.830  0.00  0.00    +0.000 HD
BRANCH  18  21
ATOM     21  C   UNL     1      25.223 -10.107  32.858  0.00  0.00    +0.000 A 
ATOM     22  C   UNL     1      25.300  -9.820  31.448  0.00  0.00    +0.000 A 
ATOM     23  C   UNL     1      26.133  -8.745  30.976  0.00  0.00    +0.000 A 
ATOM     24  C   UNL     1      26.210  -8.458  29.567  0.00  0.00    +0.000 A 
ATOM     25  C   UNL     1      25.455  -9.248  28.629  0.00  0.00    +0.000 A 
ATOM     26  C   UNL     1      24.390 -11.182  33.329  0.00  0.00    +0.000 A 
BRANCH  24  27
ATOM     27  O   UNL     1      27.032  -7.397  29.101  0.00  0.00    +0.000 OA
ATOM     28  C   UNL     1      28.011  -7.644  28.103  0.00  0.00    +0.000 C 
ENDBRANCH  24  27
ENDBRANCH  18  21
ENDBRANCH  15  17
ENDBRANCH   1  15
TORSDOF 7
ENDMDL
MODEL 4
REMARK VINA RESULT:    -6.993     23.561     26.019
REMARK INTER + INTRA:          -9.844
REMARK INTER:                  -8.694
REMARK INTRA:                  -1.150
REMARK UNBOUND:                 0.010
REMARK  Name = 
REMARK  9 active torsions:
REMARK  status: ('A' for Active; 'I' for Inactive)
REMARK    1  A    between atoms: C_1  and  O_2
REMARK    2  A    between atoms: O_2  and  C_3
REMARK    3  A    between atoms: C_6  and  C_7
REMARK    4  A    between atoms: N_9  and  N_10
REMARK    5  A    between atoms: N_10  and  C_11
REMARK    6  A    between atoms: C_11  and  N_13
REMARK    7  A    between atoms: C_14  and  C_16
REMARK    8  A    between atoms: C_19  and  O_20
REMARK    9  A    between atoms: O_20  and  C_21
REMARK                            x       y       z     vdW  Elec       q    Type
REMARK                         _______ _______ _______ _____ _____    ______ ____
ROOT
ATOM      1  N   UNL     1      28.474  -8.984  31.352  0.00  0.00    +0.000 N 
ATOM      2  H   UNL     1      28.291  -8.593  30.429  0.00  0.00    +0.000 HD
ENDROOT
BRANCH   1   5
ATOM      3  C   UNL     1      30.934  -8.810  30.918  0.00  0.00    +0.000 C 
ATOM      4  O   UNL     1      32.129  -8.914  31.336  0.00  0.00    +0.000 OA
ATOM      5  N   UNL     1      29.810  -9.102  31.820  0.00  0.00    +0.000 N 
ATOM      6  H   UNL     1      29.990  -9.389  32.781  0.00  0.00    +0.000 HD
BRANCH   3  10
ATOM      7  C   UNL     1      31.705  -9.348  25.946  0.00  0.00    +0.000 A 
ATOM      8  C   UNL     1      31.058  -8.663  27.037  0.00  0.00    +0.000 A 
ATOM      9  C   UNL     1      31.313  -9.068  28.394  0.00  0.00    +0.000 A 
ATOM     10  C   UNL     1      30.665  -8.383  29.484  0.00  0.00    +0.000 A 
ATOM     11  C   UNL     1      29.764  -7.292  29.214  0.00  0.00    +0.000 A 
ATOM     12  C   UNL     1      31.450  -8.943  24.589  0.00  0.00    +0.000 A 
BRANCH   7  14
ATOM     13  C   UNL     1      33.986 -10.265  25.985  0.00  0.00    +0.000 C 
ATOM     14  O   UNL     1      32.594 -10.423  26.213  0.00  0.00    +0.000 OA
ENDBRANCH   7  14
ENDBRANCH   3  10
ENDBRANCH   1   5
BRANCH   1  15
ATOM     15  C   UNL     1      27.358  -9.427  32.199  0.00  0.00    +0.000 C 
ATOM     16  S   UNL     1      27.635 -10.419  33.450  0.00  0.00    +0.000 S 
BRANCH  15  17
ATOM     17  N   UNL     1      25.990  -8.970  31.912  0.00  0.00    +0.000 N 
ATOM     18  C   UNL     1      25.186  -9.653  30.889  0.00  0.00    +0.000 C 
ATOM     19  O   UNL     1      24.004  -9.259  30.641  0.00  0.00    +0.000 OA
ATOM     20  H   UNL     1      25.600  -8.179  32.423  0.00  0.00    +0.000 HD
BRANCH  18  21
ATOM     21  C   UNL     1      25.769 -10.833  30.128  0.00  0.00    +0.000 A 
ATOM     22  C   UNL     1      26.432 -10.618  28.866  0.00  0.00    +0.000 A 
ATOM     23  C   UNL     1      26.542  -9.288  28.327  0.00  0.00    +0.000 A 
ATOM     24  C   UNL     1      27.204  -9.073  27.067  0.00  0.00    +0.000 A 
ATOM     25  C   UNL     1      27.759 -10.190  26.345  0.00  0.00    +0.000 A 
ATOM     26  C   UNL     1      25.659 -12.164  30.666  0.00  0.00    +0.000 A 
BRANCH  24  27
ATOM     27  O   UNL     1      27.313  -7.760  26.535  0.00  0.00    +0.000 OA
ATOM     28  C   UNL     1      27.967  -7.550  25.293  0.00  0.00    +0.000 C 
ENDBRANCH  24  27
ENDBRANCH  18  21
ENDBRANCH  15  17
ENDBRANCH   1  15
TORSDOF 7
ENDMDL
MODEL 5
REMARK VINA RESULT:    -6.963     23.172     25.560
REMARK INTER + INTRA:          -9.803
REMARK INTER:                  -7.863
REMARK INTRA:                  -1.940
REMARK UNBOUND:                 0.010
REMARK  Name = 
REMARK  9 active torsions:
REMARK  status: ('A' for Active; 'I' for Inactive)
REMARK    1  A    between atoms: C_1  and  O_2
REMARK    2  A    between atoms: O_2  and  C_3
REMARK    3  A    between atoms: C_6  and  C_7
REMARK    4  A    between atoms: N_9  and  N_10
REMARK    5  A    between atoms: N_10  and  C_11
REMARK    6  A    between atoms: C_11  and  N_13
REMARK    7  A    between atoms: C_14  and  C_16
REMARK    8  A    between atoms: C_19  and  O_20
REMARK    9  A    between atoms: O_20  and  C_21
REMARK                            x       y       z     vdW  Elec       q    Type
REMARK                         _______ _______ _______ _____ _____    ______ ____
ROOT
ATOM      1  N   UNL     1      30.003  -7.018  28.365  0.00  0.00    +0.000 N 
ATOM      2  H   UNL     1      29.438  -6.859  29.198  0.00  0.00    +0.000 HD
ENDROOT
BRANCH   1   5
ATOM      3  C   UNL     1      32.307  -7.604  29.150  0.00  0.00    +0.000 C 
ATOM      4  O   UNL     1      33.553  -7.355  29.170  0.00  0.00    +0.000 OA
ATOM      5  N   UNL     1      31.396  -6.739  28.388  0.00  0.00    +0.000 N 
ATOM      6  H   UNL     1      31.764  -5.938  27.875  0.00  0.00    +0.000 HD
BRANCH   3  10
ATOM      7  C   UNL     1      31.207 -12.535  29.411  0.00  0.00    +0.000 A 
ATOM      8  C   UNL     1      31.223 -11.232  30.025  0.00  0.00    +0.000 A 
ATOM      9  C   UNL     1      31.742 -10.101  29.300  0.00  0.00    +0.000 A 
ATOM     10  C   UNL     1      31.759  -8.798  29.914  0.00  0.00    +0.000 A 
ATOM     11  C   UNL     1      31.256  -8.627  31.253  0.00  0.00    +0.000 A 
ATOM     12  C   UNL     1      30.687 -13.665  30.135  0.00  0.00    +0.000 A 
BRANCH   7  14
ATOM     13  C   UNL     1      31.046 -13.588  27.194  0.00  0.00    +0.000 C 
ATOM     14  O   UNL     1      31.702 -12.704  28.091  0.00  0.00    +0.000 OA
ENDBRANCH   7  14
ENDBRANCH   3  10
ENDBRANCH   1   5
BRANCH   1  15
ATOM     15  C   UNL     1      29.378  -7.536  27.139  0.00  0.00    +0.000 C 
ATOM     16  S   UNL     1      30.304  -8.082  25.927  0.00  0.00    +0.000 S 
BRANCH  15  17
ATOM     17  N   UNL     1      27.913  -7.560  27.015  0.00  0.00    +0.000 N 
ATOM     18  C   UNL     1      27.161  -8.757  27.415  0.00  0.00    +0.000 C 
ATOM     19  O   UNL     1      25.895  -8.778  27.308  0.00  0.00    +0.000 OA
ATOM     20  H   UNL     1      27.420  -6.745  26.650  0.00  0.00    +0.000 HD
BRANCH  18  21
ATOM     21  C   UNL     1      27.898  -9.971  27.958  0.00  0.00    +0.000 A 
ATOM     22  C   UNL     1      27.991 -10.178  29.381  0.00  0.00    +0.000 A 
ATOM     23  C   UNL     1      27.387  -9.237  30.288  0.00  0.00    +0.000 A 
ATOM     24  C   UNL     1      27.480  -9.444  31.709  0.00  0.00    +0.000 A 
ATOM     25  C   UNL     1      28.177 -10.595  32.225  0.00  0.00    +0.000 A 
ATOM     26  C   UNL     1      28.503 -10.912  27.052  0.00  0.00    +0.000 A 
BRANCH  24  27
ATOM     27  O   UNL     1      26.884  -8.516  32.604  0.00  0.00    +0.000 OA
ATOM     28  C   UNL     1      26.454  -8.943  33.888  0.00  0.00    +0.000 C 
ENDBRANCH  24  27
ENDBRANCH  18  21
ENDBRANCH  15  17
ENDBRANCH   1  15
TORSDOF 7
ENDMDL
MODEL 6
REMARK VINA RESULT:    -6.949      2.479      3.539
REMARK INTER + INTRA:          -9.782
REMARK INTER:                  -9.472
REMARK INTRA:                  -0.310
REMARK UNBOUND:                 0.010
REMARK  Name = 
REMARK  9 active torsions:
REMARK  status: ('A' for Active; 'I' for Inactive)
REMARK    1  A    between atoms: C_1  and  O_2
REMARK    2  A    between atoms: O_2  and  C_3
REMARK    3  A    between atoms: C_6  and  C_7
REMARK    4  A    between atoms: N_9  and  N_10
REMARK    5  A    between atoms: N_10  and  C_11
REMARK    6  A    between atoms: C_11  and  N_13
REMARK    7  A    between atoms: C_14  and  C_16
REMARK    8  A    between atoms: C_19  and  O_20
REMARK    9  A    between atoms: O_20  and  C_21
REMARK                            x       y       z     vdW  Elec       q    Type
REMARK                         _______ _______ _______ _____ _____    ______ ____
ROOT
ATOM      1  N   UNL     1      37.250  11.122  41.745  0.00  0.00    +0.000 N 
ATOM      2  H   UNL     1      37.672  10.299  42.172  0.00  0.00    +0.000 HD
ENDROOT
BRANCH   1   5
ATOM      3  C   UNL     1      35.139   9.822  41.389  0.00  0.00    +0.000 C 
ATOM      4  O   UNL     1      33.947   9.769  40.953  0.00  0.00    +0.000 OA
ATOM      5  N   UNL     1      35.917  11.063  41.256  0.00  0.00    +0.000 N 
ATOM      6  H   UNL     1      35.499  11.881  40.814  0.00  0.00    +0.000 HD
BRANCH   3  10
ATOM      7  C   UNL     1      36.148   4.865  41.414  0.00  0.00    +0.000 A 
ATOM      8  C   UNL     1      36.250   6.156  42.044  0.00  0.00    +0.000 A 
ATOM      9  C   UNL     1      35.659   7.311  41.419  0.00  0.00    +0.000 A 
ATOM     10  C   UNL     1      35.762   8.603  42.049  0.00  0.00    +0.000 A 
ATOM     11  C   UNL     1      36.454   8.738  43.305  0.00  0.00    +0.000 A 
ATOM     12  C   UNL     1      36.737   3.710  42.039  0.00  0.00    +0.000 A 
BRANCH   7  14
ATOM     13  C   UNL     1      34.154   4.187  40.144  0.00  0.00    +0.000 C 
ATOM     14  O   UNL     1      35.464   4.732  40.175  0.00  0.00    +0.000 OA
ENDBRANCH   7  14
ENDBRANCH   3  10
ENDBRANCH   1   5
BRANCH   1  15
ATOM     15  C   UNL     1      38.018  12.370  41.633  0.00  0.00    +0.000 C 
ATOM     16  S   UNL     1      37.262  13.799  41.742  0.00  0.00    +0.000 S 
BRANCH  15  17
ATOM     17  N   UNL     1      39.473  12.322  41.423  0.00  0.00    +0.000 N 
ATOM     18  C   UNL     1      40.382  12.295  42.577  0.00  0.00    +0.000 C 
ATOM     19  O   UNL     1      41.638  12.253  42.396  0.00  0.00    +0.000 OA
ATOM     20  H   UNL     1      39.850  12.306  40.476  0.00  0.00    +0.000 HD
BRANCH  18  21
ATOM     21  C   UNL     1      39.817  12.318  43.989  0.00  0.00    +0.000 A 
ATOM     22  C   UNL     1      39.754  11.101  44.758  0.00  0.00    +0.000 A 
ATOM     23  C   UNL     1      40.225   9.865  44.190  0.00  0.00    +0.000 A 
ATOM     24  C   UNL     1      40.163   8.649  44.959  0.00  0.00    +0.000 A 
ATOM     25  C   UNL     1      39.629   8.669  46.297  0.00  0.00    +0.000 A 
ATOM     26  C   UNL     1      39.345  13.554  44.557  0.00  0.00    +0.000 A 
BRANCH  24  27
ATOM     27  O   UNL     1      40.628   7.429  44.399  0.00  0.00    +0.000 OA
ATOM     28  C   UNL     1      40.401   6.204  45.079  0.00  0.00    +0.000 C 
ENDBRANCH  24  27
ENDBRANCH  18  21
ENDBRANCH  15  17
ENDBRANCH   1  15
TORSDOF 7
ENDMDL
MODEL 7
REMARK VINA RESULT:    -6.883     23.545     25.545
REMARK INTER + INTRA:          -9.689
REMARK INTER:                  -8.772
REMARK INTRA:                  -0.917
REMARK UNBOUND:                 0.010
REMARK  Name = 
REMARK  9 active torsions:
REMARK  status: ('A' for Active; 'I' for Inactive)
REMARK    1  A    between atoms: C_1  and  O_2
REMARK    2  A    between atoms: O_2  and  C_3
REMARK    3  A    between atoms: C_6  and  C_7
REMARK    4  A    between atoms: N_9  and  N_10
REMARK    5  A    between atoms: N_10  and  C_11
REMARK    6  A    between atoms: C_11  and  N_13
REMARK    7  A    between atoms: C_14  and  C_16
REMARK    8  A    between atoms: C_19  and  O_20
REMARK    9  A    between atoms: O_20  and  C_21
REMARK                            x       y       z     vdW  Elec       q    Type
REMARK                         _______ _______ _______ _____ _____    ______ ____
ROOT
ATOM      1  N   UNL     1      28.504  -9.674  30.984  0.00  0.00    +0.000 N 
ATOM      2  H   UNL     1      28.407 -10.455  30.335  0.00  0.00    +0.000 HD
ENDROOT
BRANCH   1   5
ATOM      3  C   UNL     1      30.884  -8.899  30.942  0.00  0.00    +0.000 C 
ATOM      4  O   UNL     1      31.984  -8.710  31.549  0.00  0.00    +0.000 OA
ATOM      5  N   UNL     1      29.734  -9.464  31.662  0.00  0.00    +0.000 N 
ATOM      6  H   UNL     1      29.819  -9.705  32.649  0.00  0.00    +0.000 HD
BRANCH   3  10
ATOM      7  C   UNL     1      31.717  -9.956  26.065  0.00  0.00    +0.000 A 
ATOM      8  C   UNL     1      31.176  -9.077  27.071  0.00  0.00    +0.000 A 
ATOM      9  C   UNL     1      31.297  -9.418  28.465  0.00  0.00    +0.000 A 
ATOM     10  C   UNL     1      30.756  -8.539  29.471  0.00  0.00    +0.000 A 
ATOM     11  C   UNL     1      30.095  -7.320  29.081  0.00  0.00    +0.000 A 
ATOM     12  C   UNL     1      31.596  -9.615  24.672  0.00  0.00    +0.000 A 
BRANCH   7  14
ATOM     13  C   UNL     1      33.777 -11.277  26.305  0.00  0.00    +0.000 C 
ATOM     14  O   UNL     1      32.369 -11.157  26.449  0.00  0.00    +0.000 OA
ENDBRANCH   7  14
ENDBRANCH   3  10
ENDBRANCH   1   5
BRANCH   1  15
ATOM     15  C   UNL     1      27.372  -8.766  31.217  0.00  0.00    +0.000 C 
ATOM     16  S   UNL     1      26.444  -8.293  29.976  0.00  0.00    +0.000 S 
BRANCH  15  17
ATOM     17  N   UNL     1      27.080  -8.288  32.577  0.00  0.00    +0.000 N 
ATOM     18  C   UNL     1      26.176  -9.053  33.447  0.00  0.00    +0.000 C 
ATOM     19  O   UNL     1      25.925  -8.641  34.622  0.00  0.00    +0.000 OA
ATOM     20  H   UNL     1      27.506  -7.426  32.915  0.00  0.00    +0.000 HD
BRANCH  18  21
ATOM     21  C   UNL     1      25.543 -10.339  32.940  0.00  0.00    +0.000 A 
ATOM     22  C   UNL     1      26.210 -11.599  33.146  0.00  0.00    +0.000 A 
ATOM     23  C   UNL     1      27.476 -11.641  33.831  0.00  0.00    +0.000 A 
ATOM     24  C   UNL     1      28.142 -12.901  34.037  0.00  0.00    +0.000 A 
ATOM     25  C   UNL     1      27.542 -14.120  33.558  0.00  0.00    +0.000 A 
ATOM     26  C   UNL     1      24.277 -10.298  32.255  0.00  0.00    +0.000 A 
BRANCH  24  27
ATOM     27  O   UNL     1      29.391 -12.942  34.713  0.00  0.00    +0.000 OA
ATOM     28  C   UNL     1      29.430 -13.111  36.122  0.00  0.00    +0.000 C 
ENDBRANCH  24  27
ENDBRANCH  18  21
ENDBRANCH  15  17
ENDBRANCH   1  15
TORSDOF 7
ENDMDL
MODEL 8
REMARK VINA RESULT:    -6.871     28.588     32.368
REMARK INTER + INTRA:          -9.672
REMARK INTER:                  -8.287
REMARK INTRA:                  -1.385
REMARK UNBOUND:                 0.010
REMARK  Name = 
REMARK  9 active torsions:
REMARK  status: ('A' for Active; 'I' for Inactive)
REMARK    1  A    between atoms: C_1  and  O_2
REMARK    2  A    between atoms: O_2  and  C_3
REMARK    3  A    between atoms: C_6  and  C_7
REMARK    4  A    between atoms: N_9  and  N_10
REMARK    5  A    between atoms: N_10  and  C_11
REMARK    6  A    between atoms: C_11  and  N_13
REMARK    7  A    between atoms: C_14  and  C_16
REMARK    8  A    between atoms: C_19  and  O_20
REMARK    9  A    between atoms: O_20  and  C_21
REMARK                            x       y       z     vdW  Elec       q    Type
REMARK                         _______ _______ _______ _____ _____    ______ ____
ROOT
ATOM      1  N   UNL     1      10.182   2.012  24.847  0.00  0.00    +0.000 N 
ATOM      2  H   UNL     1      10.378   2.926  25.254  0.00  0.00    +0.000 HD
ENDROOT
BRANCH   1   5
ATOM      3  C   UNL     1      10.291   0.996  27.132  0.00  0.00    +0.000 C 
ATOM      4  O   UNL     1      10.174  -0.021  27.885  0.00  0.00    +0.000 OA
ATOM      5  N   UNL     1      10.051   0.875  25.687  0.00  0.00    +0.000 N 
ATOM      6  H   UNL     1       9.790  -0.027  25.288  0.00  0.00    +0.000 HD
BRANCH   3  10
ATOM      7  C   UNL     1      13.828   4.295  28.617  0.00  0.00    +0.000 A 
ATOM      8  C   UNL     1      12.438   3.954  28.453  0.00  0.00    +0.000 A 
ATOM      9  C   UNL     1      12.070   2.681  27.891  0.00  0.00    +0.000 A 
ATOM     10  C   UNL     1      10.680   2.340  27.727  0.00  0.00    +0.000 A 
ATOM     11  C   UNL     1       9.658   3.274  28.128  0.00  0.00    +0.000 A 
ATOM     12  C   UNL     1      14.196   5.567  29.180  0.00  0.00    +0.000 A 
BRANCH   7  14
ATOM     13  C   UNL     1      16.018   3.844  27.592  0.00  0.00    +0.000 C 
ATOM     14  O   UNL     1      14.836   3.375  28.222  0.00  0.00    +0.000 OA
ENDBRANCH   7  14
ENDBRANCH   3  10
ENDBRANCH   1   5
BRANCH   1  15
ATOM     15  C   UNL     1      10.034   1.871  23.391  0.00  0.00    +0.000 C 
ATOM     16  S   UNL     1       9.818   3.185  22.468  0.00  0.00    +0.000 S 
BRANCH  15  17
ATOM     17  N   UNL     1      10.083   0.538  22.773  0.00  0.00    +0.000 N 
ATOM     18  C   UNL     1      11.371  -0.029  22.350  0.00  0.00    +0.000 C 
ATOM     19  O   UNL     1      11.414  -1.182  21.817  0.00  0.00    +0.000 OA
ATOM     20  H   UNL     1       9.223   0.007  22.638  0.00  0.00    +0.000 HD
BRANCH  18  21
ATOM     21  C   UNL     1      12.653   0.763  22.552  0.00  0.00    +0.000 A 
ATOM     22  C   UNL     1      13.404   0.617  23.773  0.00  0.00    +0.000 A 
ATOM     23  C   UNL     1      12.942  -0.279  24.801  0.00  0.00    +0.000 A 
ATOM     24  C   UNL     1      13.692  -0.426  26.020  0.00  0.00    +0.000 A 
ATOM     25  C   UNL     1      14.907   0.324  26.212  0.00  0.00    +0.000 A 
ATOM     26  C   UNL     1      13.116   1.660  21.525  0.00  0.00    +0.000 A 
BRANCH  24  27
ATOM     27  O   UNL     1      13.236  -1.310  27.034  0.00  0.00    +0.000 OA
ATOM     28  C   UNL     1      12.542  -2.497  26.680  0.00  0.00    +0.000 C 
ENDBRANCH  24  27
ENDBRANCH  18  21
ENDBRANCH  15  17
ENDBRANCH   1  15
TORSDOF 7
ENDMDL
MODEL 9
REMARK VINA RESULT:    -6.748     23.864     27.255
REMARK INTER + INTRA:          -9.499
REMARK INTER:                  -8.844
REMARK INTRA:                  -0.654
REMARK UNBOUND:                 0.010
REMARK  Name = 
REMARK  9 active torsions:
REMARK  status: ('A' for Active; 'I' for Inactive)
REMARK    1  A    between atoms: C_1  and  O_2
REMARK    2  A    between atoms: O_2  and  C_3
REMARK    3  A    between atoms: C_6  and  C_7
REMARK    4  A    between atoms: N_9  and  N_10
REMARK    5  A    between atoms: N_10  and  C_11
REMARK    6  A    between atoms: C_11  and  N_13
REMARK    7  A    between atoms: C_14  and  C_16
REMARK    8  A    between atoms: C_19  and  O_20
REMARK    9  A    between atoms: O_20  and  C_21
REMARK                            x       y       z     vdW  Elec       q    Type
REMARK                         _______ _______ _______ _____ _____    ______ ____
ROOT
ATOM      1  N   UNL     1      29.516 -10.159  29.074  0.00  0.00    +0.000 N 
ATOM      2  H   UNL     1      30.005 -10.017  28.191  0.00  0.00    +0.000 HD
ENDROOT
BRANCH   1   5
ATOM      3  C   UNL     1      31.420  -9.138  30.338  0.00  0.00    +0.000 C 
ATOM      4  O   UNL     1      32.030  -8.951  31.438  0.00  0.00    +0.000 OA
ATOM      5  N   UNL     1      30.197  -9.952  30.304  0.00  0.00    +0.000 N 
ATOM      6  H   UNL     1      29.837 -10.367  31.162  0.00  0.00    +0.000 HD
BRANCH   3  10
ATOM      7  C   UNL     1      34.419  -9.347  26.269  0.00  0.00    +0.000 A 
ATOM      8  C   UNL     1      33.442  -8.640  27.058  0.00  0.00    +0.000 A 
ATOM      9  C   UNL     1      32.935  -9.226  28.270  0.00  0.00    +0.000 A 
ATOM     10  C   UNL     1      31.957  -8.519  29.058  0.00  0.00    +0.000 A 
ATOM     11  C   UNL     1      31.490  -7.224  28.632  0.00  0.00    +0.000 A 
ATOM     12  C   UNL     1      34.928  -8.760  25.057  0.00  0.00    +0.000 A 
BRANCH   7  14
ATOM     13  C   UNL     1      35.709 -11.395  25.832  0.00  0.00    +0.000 C 
ATOM     14  O   UNL     1      34.881 -10.623  26.689  0.00  0.00    +0.000 OA
ENDBRANCH   7  14
ENDBRANCH   3  10
ENDBRANCH   1   5
BRANCH   1  15
ATOM     15  C   UNL     1      28.107 -10.579  29.077  0.00  0.00    +0.000 C 
ATOM     16  S   UNL     1      27.688 -12.011  28.445  0.00  0.00    +0.000 S 
BRANCH  15  17
ATOM     17  N   UNL     1      27.079  -9.700  29.654  0.00  0.00    +0.000 N 
ATOM     18  C   UNL     1      26.368  -8.741  28.798  0.00  0.00    +0.000 C 
ATOM     19  O   UNL     1      25.479  -7.982  29.296  0.00  0.00    +0.000 OA
ATOM     20  H   UNL     1      26.860  -9.757  30.648  0.00  0.00    +0.000 HD
BRANCH  18  21
ATOM     21  C   UNL     1      26.696  -8.657  27.315  0.00  0.00    +0.000 A 
ATOM     22  C   UNL     1      25.818  -9.266  26.349  0.00  0.00    +0.000 A 
ATOM     23  C   UNL     1      24.630  -9.953  26.786  0.00  0.00    +0.000 A 
ATOM     24  C   UNL     1      23.752 -10.562  25.821  0.00  0.00    +0.000 A 
ATOM     25  C   UNL     1      24.061 -10.482  24.416  0.00  0.00    +0.000 A 
ATOM     26  C   UNL     1      27.883  -7.971  26.877  0.00  0.00    +0.000 A 
BRANCH  24  27
ATOM     27  O   UNL     1      22.581 -11.240  26.253  0.00  0.00    +0.000 OA
ATOM     28  C   UNL     1      21.944 -12.173  25.393  0.00  0.00    +0.000 C 
ENDBRANCH  24  27
ENDBRANCH  18  21
ENDBRANCH  15  17
ENDBRANCH   1  15
TORSDOF 7
ENDMDL
MODEL 10
REMARK VINA RESULT:    -6.734     27.011     28.989
REMARK INTER + INTRA:          -9.479
REMARK INTER:                  -8.560
REMARK INTRA:                  -0.919
REMARK UNBOUND:                 0.010
REMARK  Name = 
REMARK  9 active torsions:
REMARK  status: ('A' for Active; 'I' for Inactive)
REMARK    1  A    between atoms: C_1  and  O_2
REMARK    2  A    between atoms: O_2  and  C_3
REMARK    3  A    between atoms: C_6  and  C_7
REMARK    4  A    between atoms: N_9  and  N_10
REMARK    5  A    between atoms: N_10  and  C_11
REMARK    6  A    between atoms: C_11  and  N_13
REMARK    7  A    between atoms: C_14  and  C_16
REMARK    8  A    between atoms: C_19  and  O_20
REMARK    9  A    between atoms: O_20  and  C_21
REMARK                            x       y       z     vdW  Elec       q    Type
REMARK                         _______ _______ _______ _____ _____    ______ ____
ROOT
ATOM      1  N   UNL     1      12.471   4.799  29.506  0.00  0.00    +0.000 N 
ATOM      2  H   UNL     1      12.494   4.590  28.508  0.00  0.00    +0.000 HD
ENDROOT
BRANCH   1   5
ATOM      3  C   UNL     1      14.393   3.239  29.878  0.00  0.00    +0.000 C 
ATOM      4  O   UNL     1      15.143   2.597  30.678  0.00  0.00    +0.000 OA
ATOM      5  N   UNL     1      13.308   4.082  30.401  0.00  0.00    +0.000 N 
ATOM      6  H   UNL     1      13.158   4.152  31.407  0.00  0.00    +0.000 HD
BRANCH   3  10
ATOM      7  C   UNL     1      13.673   0.853  25.474  0.00  0.00    +0.000 A 
ATOM      8  C   UNL     1      14.252   1.945  26.216  0.00  0.00    +0.000 A 
ATOM      9  C   UNL     1      14.040   2.043  27.637  0.00  0.00    +0.000 A 
ATOM     10  C   UNL     1      14.618   3.135  28.378  0.00  0.00    +0.000 A 
ATOM     11  C   UNL     1      15.410   4.127  27.697  0.00  0.00    +0.000 A 
ATOM     12  C   UNL     1      13.887   0.755  24.055  0.00  0.00    +0.000 A 
BRANCH   7  14
ATOM     13  C   UNL     1      11.536  -0.323  25.781  0.00  0.00    +0.000 C 
ATOM     14  O   UNL     1      12.893  -0.126  26.146  0.00  0.00    +0.000 OA
ENDBRANCH   7  14
ENDBRANCH   3  10
ENDBRANCH   1   5
BRANCH   1  15
ATOM     15  C   UNL     1      11.571   5.842  30.018  0.00  0.00    +0.000 C 
ATOM     16  S   UNL     1      10.231   6.232  29.195  0.00  0.00    +0.000 S 
BRANCH  15  17
ATOM     17  N   UNL     1      11.886   6.531  31.278  0.00  0.00    +0.000 N 
ATOM     18  C   UNL     1      12.843   7.647  31.287  0.00  0.00    +0.000 C 
ATOM     19  O   UNL     1      13.115   8.243  32.375  0.00  0.00    +0.000 OA
ATOM     20  H   UNL     1      11.440   6.235  32.146  0.00  0.00    +0.000 HD
BRANCH  18  21
ATOM     21  C   UNL     1      13.507   8.087  29.992  0.00  0.00    +0.000 A 
ATOM     22  C   UNL     1      12.894   9.108  29.181  0.00  0.00    +0.000 A 
ATOM     23  C   UNL     1      11.654   9.711  29.596  0.00  0.00    +0.000 A 
ATOM     24  C   UNL     1      11.041  10.731  28.785  0.00  0.00    +0.000 A 
ATOM     25  C   UNL     1      11.670  11.150  27.559  0.00  0.00    +0.000 A 
ATOM     26  C   UNL     1      14.746   7.485  29.576  0.00  0.00    +0.000 A 
BRANCH  24  27
ATOM     27  O   UNL     1       9.818  11.325  29.195  0.00  0.00    +0.000 OA
ATOM     28  C   UNL     1       8.586  10.674  28.923  0.00  0.00    +0.000 C 
ENDBRANCH  24  27
ENDBRANCH  18  21
ENDBRANCH  15  17
ENDBRANCH   1  15
TORSDOF 7
ENDMDL
