REMARK  Name = 
REMARK  8 active torsions:
REMARK  status: ('A' for Active; 'I' for Inactive)
REMARK    1  A    between atoms: C_1  and  C_2
REMARK    2  A    between atoms: C_2  and  C_3
REMARK    3  A    between atoms: C_3  and  O_4
REMARK    4  A    between atoms: O_4  and  C_5
REMARK    5  A    between atoms: C_8  and  C_9
REMARK    6  A    between atoms: C_14  and  C_15
REMARK    7  A    between atoms: C_18  and  O_19
REMARK    8  A    between atoms: O_19  and  C_20
REMARK                            x       y       z     vdW  Elec       q    Type
REMARK                         _______ _______ _______ _____ _____    ______ ____
ROOT
ATOM      1  C   UNL     1      -1.853  -6.014  -3.453  0.00  0.00    +0.000 C 
ATOM      2  N   UNL     1      -2.171  -5.224  -4.456  0.00  0.00    +0.000 NA
ATOM      3  C   UNL     1      -3.016  -5.727  -5.549  0.00  0.00    +0.000 C 
ATOM      4  O   UNL     1      -3.440  -6.925  -5.524  0.00  0.00    +0.000 OA
ATOM      5  C   UNL     1      -3.383  -4.814  -6.707  0.00  0.00    +0.000 C 
ATOM      6  C   UNL     1      -4.165  -5.280  -7.718  0.00  0.00    +0.000 C 
ATOM      7  S   UNL     1      -2.456  -7.721  -3.419  0.00  0.00    +0.000 S 
ENDROOT
BRANCH   1  11
ATOM      8  C   UNL     1       0.809  -2.287  -1.307  0.00  0.00    +0.000 A 
ATOM      9  C   UNL     1       0.329  -3.644  -1.280  0.00  0.00    +0.000 A 
ATOM     10  C   UNL     1      -0.499  -4.137  -2.351  0.00  0.00    +0.000 A 
ATOM     11  C   UNL     1      -0.979  -5.495  -2.323  0.00  0.00    +0.000 A 
ATOM     12  C   UNL     1      -0.631  -6.360  -1.226  0.00  0.00    +0.000 A 
ATOM     13  C   UNL     1       1.637  -1.794  -0.237  0.00  0.00    +0.000 A 
BRANCH   8  14
ATOM     14  O   UNL     1       0.466  -1.434  -2.390  0.00  0.00    +0.000 OA
BRANCH  14  15
ATOM     15  C   UNL     1       0.939  -0.096  -2.417  0.00  0.00    +0.000 C 
BRANCH  15  17
ATOM     16  C   UNL     1       0.939  -0.046   0.065  0.00  0.00    +0.000 C 
ATOM     17  C   UNL     1       0.433   0.646  -1.190  0.00  0.00    +0.000 C 
ENDBRANCH  15  17
ENDBRANCH  14  15
ENDBRANCH   8  14
ENDBRANCH   1  11
BRANCH   6  18
ATOM     18  C   UNL     1      -4.532  -4.367  -8.877  0.00  0.00    +0.000 A 
ATOM     19  C   UNL     1      -4.052  -3.009  -8.904  0.00  0.00    +0.000 A 
ATOM     20  C   UNL     1      -3.224  -2.517  -7.834  0.00  0.00    +0.000 A 
ATOM     21  C   UNL     1      -2.744  -1.159  -7.861  0.00  0.00    +0.000 A 
ATOM     22  C   UNL     1      -3.092  -0.294  -8.959  0.00  0.00    +0.000 A 
ATOM     23  C   UNL     1      -5.360  -4.859  -9.947  0.00  0.00    +0.000 A 
BRANCH  21  24
ATOM     24  O   UNL     1      -1.928  -0.673  -6.805  0.00  0.00    +0.000 OA
ATOM     25  C   UNL     1      -1.585  -1.526  -5.723  0.00  0.00    +0.000 C 
ENDBRANCH  21  24
ENDBRANCH   6  18
TORSDOF 6
