REMARK  Name = 
REMARK  9 active torsions:
REMARK  status: ('A' for Active; 'I' for Inactive)
REMARK    1  A    between atoms: C_1  and  O_2
REMARK    2  A    between atoms: O_2  and  C_3
REMARK    3  A    between atoms: C_4  and  C_5
REMARK    4  A    between atoms: N_6  and  N_7
REMARK    5  A    between atoms: N_7  and  C_8
REMARK    6  A    between atoms: C_11  and  N_12
REMARK    7  A    between atoms: C_16  and  N_17
REMARK    8  A    between atoms: C_20  and  C_21
REMARK    9  A    between atoms: N_23  and  C_24
REMARK                            x       y       z     vdW  Elec       q    Type
REMARK                         _______ _______ _______ _____ _____    ______ ____
ROOT
ATOM      1  C   UNL     1      -0.410   4.007  -0.114  0.00  0.00    +0.000 C 
ATOM      2  N   UNL     1      -0.848   5.248  -0.118  0.00  0.00    +0.000 NA
ENDROOT
BRANCH   1   4
ATOM      3  C   UNL     1       0.944   2.156   1.031  0.00  0.00    +0.000 A 
ATOM      4  C   UNL     1       0.464   3.514   1.027  0.00  0.00    +0.000 A 
ATOM      5  C   UNL     1       0.812   4.403   2.105  0.00  0.00    +0.000 A 
ATOM      6  C   UNL     1       1.686   3.910   3.246  0.00  0.00    +0.000 C 
ATOM      7  N   UNL     1       0.348   5.717   2.101  0.00  0.00    +0.000 NA
ATOM      8  N   UNL     1       1.745   1.703   2.077  0.00  0.00    +0.000 N 
BRANCH   8   9
ATOM      9  C   UNL     1       2.235   0.317   2.081  0.00  0.00    +0.000 A 
ATOM     10  C   UNL     1       3.063  -0.151   3.162  0.00  0.00    +0.000 A 
ATOM     11  C   UNL     1       3.411   0.739   4.240  0.00  0.00    +0.000 A 
ATOM     12  C   UNL     1       4.239   0.271   5.321  0.00  0.00    +0.000 A 
ATOM     13  C   UNL     1       4.587   1.161   6.399  0.00  0.00    +0.000 A 
ATOM     14  C   UNL     1       1.887  -0.573   1.003  0.00  0.00    +0.000 A 
ENDBRANCH   8   9
BRANCH   3  16
ATOM     15  C   UNL     1       1.075  -0.060  -0.028  0.00  0.00    +0.000 C 
ATOM     16  O   UNL     1       0.601   1.278  -0.032  0.00  0.00    +0.000 OA
ENDBRANCH   3  16
ENDBRANCH   1   4
BRANCH   2  17
ATOM     17  N   UNL     1      -1.664   5.709  -1.184  0.00  0.00    +0.000 N 
ATOM     18  H   UNL     1      -2.004   6.671  -1.187  0.00  0.00    +0.000 HD
BRANCH  17  19
ATOM     19  C   UNL     1      -2.020   4.801  -2.284  0.00  0.00    +0.000 A 
ATOM     20  C   UNL     1      -1.540   3.443  -2.280  0.00  0.00    +0.000 A 
ATOM     21  C   UNL     1      -0.712   2.975  -1.199  0.00  0.00    +0.000 A 
ATOM     22  C   UNL     1      -0.231   1.617  -1.195  0.00  0.00    +0.000 A 
ATOM     23  C   UNL     1      -0.579   0.727  -2.272  0.00  0.00    +0.000 A 
ATOM     24  C   UNL     1      -2.848   5.269  -3.366  0.00  0.00    +0.000 A 
BRANCH  22  25
ATOM     25  N   UNL     1       0.614   1.140  -0.091  0.00  0.00    +0.000 N 
ATOM     26  O   UNL     1       1.022  -0.016  -0.088  0.00  0.00    +0.000 OA
ATOM     27  O   UNL     1       0.945   1.986   0.934  0.00  0.00    +0.000 OA
ENDBRANCH  22  25
BRANCH  24  28
ATOM     28  N   UNL     1      -3.338   6.655  -3.370  0.00  0.00    +0.000 N 
ATOM     29  O   UNL     1      -3.041   7.412  -2.452  0.00  0.00    +0.000 OA
ATOM     30  O   UNL     1      -4.125   7.100  -4.398  0.00  0.00    +0.000 OA
ENDBRANCH  24  28
ENDBRANCH  17  19
ENDBRANCH   2  17
TORSDOF 7
