REMARK  Name = 
REMARK  6 active torsions:
REMARK  status: ('A' for Active; 'I' for Inactive)
REMARK    1  A    between atoms: C_4  and  C_5
REMARK    2  A    between atoms: C_8  and  N_9
REMARK    3  A    between atoms: N_18  and  C_19
REMARK    4  A    between atoms: N_25  and  C_26
REMARK    5  A    between atoms: C_26  and  C_27
REMARK    6  A    between atoms: C_27  and  C_28
REMARK                            x       y       z     vdW  Elec       q    Type
REMARK                         _______ _______ _______ _____ _____    ______ ____
ROOT
ATOM      1  O   UNL     1       1.033   0.029  -0.090  0.00  0.00    +0.000 OA
ATOM      2  C   UNL     1       2.304   0.029  -0.090  0.00  0.00    +0.000 C 
ATOM      3  C   UNL     1       3.064  -0.398   1.155  0.00  0.00    +0.000 C 
ATOM      4  C   UNL     1       2.383  -0.781   2.269  0.00  0.00    +0.000 C 
ATOM      5  S   UNL     1       4.874  -0.398   1.155  0.00  0.00    +0.000 S 
ATOM      6  C   UNL     1       5.477  -0.952   2.769  0.00  0.00    +0.000 C 
ATOM      7  N   UNL     1       6.771  -1.030   2.997  0.00  0.00    +0.000 NA
ATOM      8  N   UNL     1       3.039   0.442  -1.294  0.00  0.00    +0.000 N 
ENDROOT
BRANCH   7   9
ATOM      9  C   UNL     1       7.261  -1.480   4.308  0.00  0.00    +0.000 A 
ATOM     10  C   UNL     1       8.676  -1.566   4.556  0.00  0.00    +0.000 A 
ATOM     11  C   UNL     1       9.612  -1.210   3.521  0.00  0.00    +0.000 A 
ATOM     12  C   UNL     1      11.028  -1.296   3.770  0.00  0.00    +0.000 A 
ATOM     13  C   UNL     1      11.964  -0.940   2.735  0.00  0.00    +0.000 A 
ATOM     14  C   UNL     1       6.325  -1.835   5.343  0.00  0.00    +0.000 A 
ENDBRANCH   7   9
BRANCH   4  15
ATOM     15  C   UNL     1       3.143  -1.208   3.515  0.00  0.00    +0.000 A 
ATOM     16  C   UNL     1       4.584  -1.208   3.515  0.00  0.00    +0.000 A 
ATOM     17  C   UNL     1       5.304  -0.803   2.335  0.00  0.00    +0.000 A 
ATOM     18  C   UNL     1       6.744  -0.803   2.335  0.00  0.00    +0.000 A 
ATOM     19  O   UNL     1       2.471  -1.586   4.617  0.00  0.00    +0.000 OA
BRANCH  18  20
ATOM     20  N   UNL     1       7.479  -1.216   3.539  0.00  0.00    +0.000 N 
ATOM     21  C   UNL     1       8.949  -1.216   3.539  0.00  0.00    +0.000 C 
ATOM     22  C   UNL     1       9.456  -2.158   2.458  0.00  0.00    +0.000 C 
ATOM     23  O   UNL     1       8.982  -1.723   1.192  0.00  0.00    +0.000 OA
ATOM     24  C   UNL     1       7.562  -1.723   1.192  0.00  0.00    +0.000 C 
ATOM     25  C   UNL     1       6.744  -1.630   4.743  0.00  0.00    +0.000 C 
ENDBRANCH  18  20
ENDBRANCH   4  15
BRANCH   8  26
ATOM     26  C   UNL     1       2.304   0.855  -2.498  0.00  0.00    +0.000 C 
BRANCH  26  27
ATOM     27  C   UNL     1       1.430  -0.293  -2.977  0.00  0.00    +0.000 C 
BRANCH  27  28
ATOM     28  C   UNL     1       0.442  -0.667  -1.884  0.00  0.00    +0.000 A 
ATOM     29  C   UNL     1       0.922  -1.108  -0.600  0.00  0.00    +0.000 A 
ATOM     30  N   UNL     1       2.291  -1.191  -0.359  0.00  0.00    +0.000 N 
ATOM     31  C   UNL     1       2.756  -1.617   0.883  0.00  0.00    +0.000 A 
ATOM     32  C   UNL     1       1.820  -1.972   1.918  0.00  0.00    +0.000 A 
ATOM     33  C   UNL     1       0.404  -1.887   1.669  0.00  0.00    +0.000 A 
ATOM     34  C   UNL     1      -0.532  -2.242   2.705  0.00  0.00    +0.000 A 
ATOM     35  C   UNL     1      -1.948  -2.157   2.456  0.00  0.00    +0.000 A 
ATOM     36  C   UNL     1       4.172  -1.702   1.132  0.00  0.00    +0.000 A 
ATOM     37  H   UNL     1       2.954  -0.939  -1.093  0.00  0.00    +0.000 HD
ENDBRANCH  27  28
ENDBRANCH  26  27
ENDBRANCH   8  26
TORSDOF 6
