REMARK  Name = 
REMARK  6 active torsions:
REMARK  status: ('A' for Active; 'I' for Inactive)
REMARK    1  A    between atoms: C_1  and  C_2
REMARK    2  A    between atoms: C_6  and  C_7
REMARK    3  A    between atoms: N_9  and  C_10
REMARK    4  A    between atoms: C_10  and  N_12
REMARK    5  A    between atoms: N_12  and  N_13
REMARK    6  A    between atoms: C_14  and  C_16
REMARK                            x       y       z     vdW  Elec       q    Type
REMARK                         _______ _______ _______ _____ _____    ______ ____
ROOT
ATOM      1  C   UNL     1       4.472  -5.724   3.332  0.00  0.00    +0.000 C 
ATOM      2  S   UNL     1       5.404  -7.045   3.222  0.00  0.00    +0.000 S 
ENDROOT
BRANCH   1   5
ATOM      3  C   UNL     1       3.272  -3.774   2.218  0.00  0.00    +0.000 C 
ATOM      4  O   UNL     1       2.965  -3.124   1.170  0.00  0.00    +0.000 OA
ATOM      5  N   UNL     1       4.117  -4.972   2.119  0.00  0.00    +0.000 N 
ATOM      6  H   UNL     1       4.457  -5.283   1.209  0.00  0.00    +0.000 HD
BRANCH   3  12
ATOM      7  C   UNL     1       0.920   0.047   0.037  0.00  0.00    +0.000 C 
ATOM      8  C   UNL     1       0.414   0.510   1.393  0.00  0.00    +0.000 A 
ATOM      9  C   UNL     1       0.761  -0.226   2.581  0.00  0.00    +0.000 A 
ATOM     10  C   UNL     1       1.589  -1.401   2.484  0.00  0.00    +0.000 A 
ATOM     11  C   UNL     1       1.937  -2.137   3.672  0.00  0.00    +0.000 A 
ATOM     12  C   UNL     1       2.765  -3.311   3.575  0.00  0.00    +0.000 A 
ATOM     13  C   UNL     1      -0.414   1.684   1.491  0.00  0.00    +0.000 A 
ENDBRANCH   3  12
ENDBRANCH   1   5
BRANCH   1  14
ATOM     14  N   UNL     1       3.982  -5.276   4.643  0.00  0.00    +0.000 N 
ATOM     15  H   UNL     1       4.229  -5.798   5.485  0.00  0.00    +0.000 HD
BRANCH  14  16
ATOM     16  N   UNL     1       3.166  -4.118   4.739  0.00  0.00    +0.000 N 
ATOM     17  C   UNL     1       2.676  -3.671   6.051  0.00  0.00    +0.000 C 
ATOM     18  O   UNL     1       1.945  -2.635   6.137  0.00  0.00    +0.000 OA
ATOM     19  H   UNL     1       2.919  -3.597   3.898  0.00  0.00    +0.000 HD
BRANCH  17  20
ATOM     20  C   UNL     1       3.043  -4.448   7.305  0.00  0.00    +0.000 A 
ATOM     21  C   UNL     1       2.563  -4.010   8.590  0.00  0.00    +0.000 A 
ATOM     22  C   UNL     1       1.735  -2.836   8.687  0.00  0.00    +0.000 A 
ATOM     23  C   UNL     1       1.255  -2.397   9.972  0.00  0.00    +0.000 A 
ATOM     24  C   UNL     1       0.427  -1.223  10.070  0.00  0.00    +0.000 A 
ATOM     25  C   UNL     1       3.871  -5.623   7.208  0.00  0.00    +0.000 A 
ATOM     26 CL   UNL     1       4.464  -6.164   5.619  0.00  0.00    +0.000 Cl
ENDBRANCH  17  20
ENDBRANCH  14  16
ENDBRANCH   1  14
TORSDOF 5
