REMARK  Name = 
REMARK  4 active torsions:
REMARK  status: ('A' for Active; 'I' for Inactive)
REMARK    1  A    between atoms: C_1  and  C_2
REMARK    2  A    between atoms: C_8  and  C_9
REMARK    3  A    between atoms: N_20  and  C_21
REMARK    4  A    between atoms: C_21  and  C_22
REMARK                            x       y       z     vdW  Elec       q    Type
REMARK                         _______ _______ _______ _____ _____    ______ ____
ROOT
ATOM      1  C   UNL     1       1.060  -0.061   0.052  0.00  0.00    +0.000 C 
ATOM      2  C   UNL     1       0.553   0.746  -1.133  0.00  0.00    +0.000 C 
ATOM      3  C   UNL     1       1.060   2.175  -1.026  0.00  0.00    +0.000 C 
ATOM      4  C   UNL     1       0.553   2.797   0.265  0.00  0.00    +0.000 C 
ATOM      5  C   UNL     1       1.060   1.990   1.449  0.00  0.00    +0.000 C 
ATOM      6  C   UNL     1       1.842   2.583   2.392  0.00  0.00    +0.000 C 
ATOM      7  C   UNL     1      -3.679   2.637   0.253  0.00  0.00    +0.000 C 
ATOM      8  C   UNL     1      -3.172   2.015  -1.038  0.00  0.00    +0.000 C 
ATOM      9  N   UNL     1      -1.702   2.015  -1.038  0.00  0.00    +0.000 N 
ATOM     10  C   UNL     1      -0.967   0.746  -1.133  0.00  0.00    +0.000 C 
ATOM     11  O   UNL     1      -1.602  -0.352  -1.214  0.00  0.00    +0.000 OA
ENDROOT
BRANCH   8  12
ATOM     12  C   UNL     1      -3.679   0.586  -1.144  0.00  0.00    +0.000 A 
ATOM     13  C   UNL     1      -5.119   0.578  -1.145  0.00  0.00    +0.000 A 
ATOM     14  C   UNL     1      -5.845   1.548  -0.366  0.00  0.00    +0.000 A 
ATOM     15  C   UNL     1      -7.285   1.540  -0.367  0.00  0.00    +0.000 A 
ATOM     16  C   UNL     1      -7.999   0.562  -1.146  0.00  0.00    +0.000 A 
ATOM     17  C   UNL     1      -7.273  -0.408  -1.925  0.00  0.00    +0.000 A 
ATOM     18  C   UNL     1      -7.988  -1.386  -2.704  0.00  0.00    +0.000 A 
ATOM     19  C   UNL     1      -7.262  -2.356  -3.483  0.00  0.00    +0.000 A 
ATOM     20  C   UNL     1      -8.011   2.511   0.412  0.00  0.00    +0.000 A 
ATOM     21  C   UNL     1      -2.953  -0.384  -1.923  0.00  0.00    +0.000 A 
ATOM     22 BR   UNL     1      -0.993  -0.373  -1.922  0.00  0.00    +0.000 Br
ENDBRANCH   8  12
BRANCH   9  23
ATOM     23  C   UNL     1      -0.967   3.285  -0.943  0.00  0.00    +0.000 C 
BRANCH  23  24
ATOM     24  C   UNL     1      -0.093   3.273   0.301  0.00  0.00    +0.000 A 
ATOM     25  C   UNL     1      -0.693   3.120   1.601  0.00  0.00    +0.000 A 
ATOM     26  C   UNL     1      -2.121   2.979   1.723  0.00  0.00    +0.000 A 
ATOM     27  C   UNL     1      -2.721   2.826   3.023  0.00  0.00    +0.000 A 
ATOM     28  C   UNL     1      -4.149   2.685   3.145  0.00  0.00    +0.000 A 
ATOM     29  C   UNL     1       1.335   3.414   0.179  0.00  0.00    +0.000 A 
ENDBRANCH  23  24
ENDBRANCH   9  23
TORSDOF 3
