REMARK  Name = 
REMARK  8 active torsions:
REMARK  status: ('A' for Active; 'I' for Inactive)
REMARK    1  A    between atoms: C_1  and  C_2
REMARK    2  A    between atoms: C_7  and  O_8
REMARK    3  A    between atoms: O_8  and  C_9
REMARK    4  A    between atoms: C_9  and  C_10
REMARK    5  A    between atoms: N_12  and  N_13
REMARK    6  A    between atoms: N_13  and  C_14
REMARK    7  A    between atoms: C_14  and  N_16
REMARK    8  A    between atoms: C_17  and  C_19
REMARK                            x       y       z     vdW  Elec       q    Type
REMARK                         _______ _______ _______ _____ _____    ______ ____
ROOT
ATOM      1  C   UNL     1      -2.893   1.236  -2.995  0.00  0.00    +0.000 C 
ATOM      2  O   UNL     1      -3.273   2.374  -3.415  0.00  0.00    +0.000 OA
ATOM      3  N   UNL     1      -3.753   0.464  -2.087  0.00  0.00    +0.000 N 
ATOM      4  H   UNL     1      -4.654   0.841  -1.793  0.00  0.00    +0.000 HD
ENDROOT
BRANCH   3   5
ATOM      5  N   UNL     1      -3.329  -0.808  -1.618  0.00  0.00    +0.000 N 
ATOM      6  H   UNL     1      -2.428  -1.185  -1.912  0.00  0.00    +0.000 HD
BRANCH   5   7
ATOM      7  C   UNL     1      -4.188  -1.581  -0.710  0.00  0.00    +0.000 C 
ATOM      8  S   UNL     1      -3.704  -3.031  -0.175  0.00  0.00    +0.000 S 
BRANCH   7   9
ATOM      9  N   UNL     1      -5.486  -1.037  -0.286  0.00  0.00    +0.000 N 
ATOM     10  C   UNL     1      -5.925   0.279  -0.771  0.00  0.00    +0.000 C 
ATOM     11  O   UNL     1      -7.048   0.750  -0.405  0.00  0.00    +0.000 OA
ATOM     12  H   UNL     1      -6.083  -1.573   0.344  0.00  0.00    +0.000 HD
BRANCH  10  13
ATOM     13  C   UNL     1      -5.037   1.078  -1.711  0.00  0.00    +0.000 A 
ATOM     14  C   UNL     1      -5.467   2.368  -2.186  0.00  0.00    +0.000 A 
ATOM     15  C   UNL     1      -6.739   2.901  -1.771  0.00  0.00    +0.000 A 
ATOM     16  C   UNL     1      -7.169   4.191  -2.246  0.00  0.00    +0.000 A 
ATOM     17  O   UNL     1      -3.848   0.581  -2.098  0.00  0.00    +0.000 OA
ENDBRANCH  10  13
ENDBRANCH   7   9
ENDBRANCH   5   7
ENDBRANCH   3   5
BRANCH   1  18
ATOM     18  C   UNL     1      -1.551   0.674  -3.433  0.00  0.00    +0.000 C 
BRANCH  18  19
ATOM     19  O   UNL     1      -0.734   0.455  -2.292  0.00  0.00    +0.000 OA
BRANCH  19  26
ATOM     20  C   UNL     1       0.943  -0.078   0.027  0.00  0.00    +0.000 C 
ATOM     21  C   UNL     1       0.437   1.320  -0.288  0.00  0.00    +0.000 A 
ATOM     22  C   UNL     1       0.785   2.423   0.571  0.00  0.00    +0.000 A 
ATOM     23  C   UNL     1       1.613   2.201   1.728  0.00  0.00    +0.000 A 
ATOM     24  C   UNL     1       1.960   3.303   2.587  0.00  0.00    +0.000 A 
ATOM     25  C   UNL     1       2.788   3.081   3.744  0.00  0.00    +0.000 A 
ATOM     26  C   UNL     1      -0.391   1.542  -1.446  0.00  0.00    +0.000 A 
ENDBRANCH  19  26
ENDBRANCH  18  19
ENDBRANCH   1  18
TORSDOF 7
