REMARK  Name = 
REMARK  4 active torsions:
REMARK  status: ('A' for Active; 'I' for Inactive)
REMARK    1  A    between atoms: C_2  and  C_3
REMARK    2  A    between atoms: C_6  and  S_7
REMARK    3  A    between atoms: S_7  and  C_10
REMARK    4  A    between atoms: C_17  and  N_18
REMARK                            x       y       z     vdW  Elec       q    Type
REMARK                         _______ _______ _______ _____ _____    ______ ____
ROOT
ATOM      1  C   UNL     1       2.978  -1.301   0.193  0.00  0.00    +0.000 A 
ATOM      2  C   UNL     1       2.258  -2.520   0.455  0.00  0.00    +0.000 A 
ATOM      3  C   UNL     1       0.818  -2.520   0.455  0.00  0.00    +0.000 A 
ATOM      4  C   UNL     1       0.098  -3.740   0.717  0.00  0.00    +0.000 A 
ATOM      5  C   UNL     1       0.818  -4.959   0.978  0.00  0.00    +0.000 A 
ATOM      6  C   UNL     1       4.418  -1.301   0.193  0.00  0.00    +0.000 A 
ENDROOT
BRANCH   1   8
ATOM      7  O   UNL     1       0.947  -0.014  -0.084  0.00  0.00    +0.000 OA
ATOM      8  C   UNL     1       2.218  -0.014  -0.084  0.00  0.00    +0.000 C 
ATOM      9  N   UNL     1       2.953   1.231  -0.351  0.00  0.00    +0.000 N 
ATOM     10  C   UNL     1       4.423   1.231  -0.351  0.00  0.00    +0.000 C 
ATOM     11  C   UNL     1       4.930   0.791   1.013  0.00  0.00    +0.000 C 
ATOM     12  N   UNL     1       4.440  -0.564   1.304  0.00  0.00    +0.000 N 
ATOM     13  C   UNL     1       5.395  -1.657   1.538  0.00  0.00    +0.000 A 
ATOM     14  C   UNL     1       6.811  -1.399   1.483  0.00  0.00    +0.000 A 
ATOM     15  C   UNL     1       7.291  -0.072   1.198  0.00  0.00    +0.000 A 
ATOM     16  C   UNL     1       8.707   0.185   1.143  0.00  0.00    +0.000 A 
ATOM     17  C   UNL     1       9.187   1.513   0.858  0.00  0.00    +0.000 A 
ATOM     18  N   UNL     1       4.931  -2.941   1.814  0.00  0.00    +0.000 NA
ATOM     19  C   UNL     1       2.995  -0.827   1.360  0.00  0.00    +0.000 C 
ATOM     20  C   UNL     1       2.218   2.475  -0.618  0.00  0.00    +0.000 C 
ENDBRANCH   1   8
BRANCH   4  21
ATOM     21  S   UNL     1      -1.712  -3.740   0.717  0.00  0.00    +0.000 S 
ATOM     22  O   UNL     1      -2.222  -4.708  -0.354  0.00  0.00    +0.000 OA
ATOM     23  O   UNL     1      -2.222  -4.183   2.090  0.00  0.00    +0.000 OA
BRANCH  21  24
ATOM     24  C   UNL     1      -2.316  -2.071   0.358  0.00  0.00    +0.000 A 
ATOM     25  C   UNL     1      -3.732  -1.814   0.303  0.00  0.00    +0.000 A 
ATOM     26  C   UNL     1      -4.667  -2.884   0.533  0.00  0.00    +0.000 A 
ATOM     27  C   UNL     1      -6.083  -2.627   0.477  0.00  0.00    +0.000 A 
ATOM     28  C   UNL     1      -7.019  -3.697   0.707  0.00  0.00    +0.000 A 
ATOM     29 CL   UNL     1      -6.426  -5.338   1.060  0.00  0.00    +0.000 Cl
ATOM     30  C   UNL     1      -1.380  -1.001   0.128  0.00  0.00    +0.000 A 
ENDBRANCH  21  24
ENDBRANCH   4  21
BRANCH   5  31
ATOM     31  N   UNL     1       0.083  -6.204   1.246  0.00  0.00    +0.000 N 
ATOM     32  O   UNL     1      -1.143  -6.204   1.246  0.00  0.00    +0.000 OA
ATOM     33  O   UNL     1       0.768  -7.364   1.495  0.00  0.00    +0.000 OA
ENDBRANCH   5  31
TORSDOF 4
