REMARK  Name = 
REMARK  6 active torsions:
REMARK  status: ('A' for Active; 'I' for Inactive)
REMARK    1  A    between atoms: C_1  and  C_2
REMARK    2  A    between atoms: C_2  and  C_3
REMARK    3  A    between atoms: C_3  and  O_4
REMARK    4  A    between atoms: O_4  and  C_5
REMARK    5  A    between atoms: C_8  and  C_9
REMARK    6  A    between atoms: C_12  and  C_13
REMARK                            x       y       z     vdW  Elec       q    Type
REMARK                         _______ _______ _______ _____ _____    ______ ____
ROOT
ATOM      1  C   UNL     1      -1.822   6.593  -2.088  0.00  0.00    +0.000 C 
ATOM      2  C   UNL     1      -2.276   7.417  -3.071  0.00  0.00    +0.000 C 
ATOM      3  S   UNL     1      -1.839   7.093  -4.797  0.00  0.00    +0.000 S 
ATOM      4  C   UNL     1      -2.588   8.355  -5.856  0.00  0.00    +0.000 C 
ATOM      5  N   UNL     1      -2.401   8.316  -7.158  0.00  0.00    +0.000 NA
ATOM      6  C   UNL     1      -3.150   8.610  -2.719  0.00  0.00    +0.000 C 
ATOM      7  O   UNL     1      -3.457   8.837  -1.507  0.00  0.00    +0.000 OA
ENDROOT
BRANCH   4   8
ATOM      8  C   UNL     1      -3.432   9.459  -5.242  0.00  0.00    +0.000 A 
ATOM      9  C   UNL     1      -3.636   9.501  -3.817  0.00  0.00    +0.000 A 
ATOM     10  C   UNL     1      -3.040   8.497  -2.974  0.00  0.00    +0.000 A 
ATOM     11  C   UNL     1      -3.244   8.539  -1.549  0.00  0.00    +0.000 A 
ATOM     12 CL   UNL     1      -2.508   7.298  -0.507  0.00  0.00    +0.000 Cl
ATOM     13  C   UNL     1      -4.044   9.586  -0.967  0.00  0.00    +0.000 A 
ATOM     14  C   UNL     1      -4.028  10.463  -6.085  0.00  0.00    +0.000 A 
ENDBRANCH   4   8
BRANCH   1  18
ATOM     15  C   UNL     1       0.840   2.524  -0.691  0.00  0.00    +0.000 A 
ATOM     16  C   UNL     1       0.360   3.397  -1.732  0.00  0.00    +0.000 A 
ATOM     17  C   UNL     1      -0.468   4.527  -1.399  0.00  0.00    +0.000 A 
ATOM     18  C   UNL     1      -0.949   5.400  -2.439  0.00  0.00    +0.000 A 
ATOM     19  C   UNL     1      -0.601   5.142  -3.813  0.00  0.00    +0.000 A 
ATOM     20  C   UNL     1       1.668   1.394  -1.024  0.00  0.00    +0.000 A 
BRANCH  15  21
ATOM     21  O   UNL     1       0.497   2.779   0.663  0.00  0.00    +0.000 OA
BRANCH  21  22
ATOM     22  C   UNL     1       0.970   1.919   1.689  0.00  0.00    +0.000 C 
BRANCH  22  24
ATOM     23  C   UNL     1       0.970   0.017   0.094  0.00  0.00    +0.000 C 
ATOM     24  C   UNL     1       0.463   0.507   1.440  0.00  0.00    +0.000 C 
ENDBRANCH  22  24
ENDBRANCH  21  22
ENDBRANCH  15  21
ENDBRANCH   1  18
TORSDOF 5
