REMARK  Name = 
REMARK  6 active torsions:
REMARK  status: ('A' for Active; 'I' for Inactive)
REMARK    1  A    between atoms: C_1  and  C_2
REMARK    2  A    between atoms: C_10  and  C_11
REMARK    3  A    between atoms: C_11  and  C_12
REMARK    4  A    between atoms: C_12  and  N_13
REMARK    5  A    between atoms: C_14  and  C_16
REMARK    6  A    between atoms: C_25  and  C_26
REMARK                            x       y       z     vdW  Elec       q    Type
REMARK                         _______ _______ _______ _____ _____    ______ ____
ROOT
ATOM      1  N   UNL     1       1.368  -0.192   1.997  0.00  0.00    +0.000 N 
ATOM      2  C   UNL     1       1.723   1.115   2.570  0.00  0.00    +0.000 C 
ATOM      3  O   UNL     1       2.454   1.920   1.912  0.00  0.00    +0.000 OA
ATOM      4  H   UNL     1       1.708  -0.452   1.072  0.00  0.00    +0.000 HD
ENDROOT
BRANCH   2   5
ATOM      5  C   UNL     1       1.217   1.503   3.949  0.00  0.00    +0.000 A 
ATOM      6  C   UNL     1       1.564   2.783   4.510  0.00  0.00    +0.000 A 
ATOM      7  N   UNL     1       2.365   3.665   3.789  0.00  0.00    +0.000 NA
ATOM      8  C   UNL     1       2.829   3.309   2.525  0.00  0.00    +0.000 A 
ATOM      9  N   UNL     1       2.474   2.003   1.952  0.00  0.00    +0.000 N 
ATOM     10  C   UNL     1       2.964   1.627   0.618  0.00  0.00    +0.000 A 
ATOM     11  C   UNL     1       3.792   2.539  -0.128  0.00  0.00    +0.000 A 
ATOM     12  C   UNL     1       4.140   3.819   0.433  0.00  0.00    +0.000 A 
ATOM     13  C   UNL     1       4.968   4.731  -0.313  0.00  0.00    +0.000 A 
ATOM     14  C   UNL     1       5.316   6.011   0.248  0.00  0.00    +0.000 A 
ATOM     15  N   UNL     1       2.628   0.389   0.076  0.00  0.00    +0.000 NA
ATOM     16  N   UNL     1       3.630   4.191   1.803  0.00  0.00    +0.000 NA
ATOM     17  C   UNL     1       0.389   0.591   4.696  0.00  0.00    +0.000 A 
ATOM     18  H   UNL     1       1.888   1.357   2.481  0.00  0.00    +0.000 HD
BRANCH  14  19
ATOM     19  C   UNL     1       4.810   6.400   1.627  0.00  0.00    +0.000 C 
ATOM     20  N   UNL     1       4.389   6.722   2.771  0.00  0.00    +0.000 NA
ENDBRANCH  14  19
ENDBRANCH   2   5
BRANCH   1  21
ATOM     21  C   UNL     1       0.523  -1.123   2.759  0.00  0.00    +0.000 C 
BRANCH  21  22
ATOM     22  C   UNL     1      -0.744  -1.417   1.972  0.00  0.00    +0.000 C 
BRANCH  22  32
ATOM     23  C   UNL     1       0.958   0.069   0.059  0.00  0.00    +0.000 C 
ATOM     24  C   UNL     1       0.451  -1.320  -0.294  0.00  0.00    +0.000 A 
ATOM     25  N   UNL     1       0.788  -1.893  -1.518  0.00  0.00    +0.000 N 
ATOM     26  C   UNL     1       1.589  -1.194  -2.418  0.00  0.00    +0.000 A 
ATOM     27  C   UNL     1       2.069   0.122  -2.083  0.00  0.00    +0.000 A 
ATOM     28  C   UNL     1       1.721   0.715  -0.818  0.00  0.00    +0.000 A 
ATOM     29  C   UNL     1       2.201   2.030  -0.483  0.00  0.00    +0.000 A 
ATOM     30  C   UNL     1       1.853   2.624   0.782  0.00  0.00    +0.000 A 
ATOM     31  C   UNL     1       1.937  -1.787  -3.684  0.00  0.00    +0.000 A 
ATOM     32  C   UNL     1      -0.377  -2.043   0.636  0.00  0.00    +0.000 A 
ATOM     33  H   UNL     1       0.448  -2.825  -1.755  0.00  0.00    +0.000 HD
ENDBRANCH  22  32
ENDBRANCH  21  22
ENDBRANCH   1  21
TORSDOF 5
