REMARK  Name = 
REMARK  5 active torsions:
REMARK  status: ('A' for Active; 'I' for Inactive)
REMARK    1  A    between atoms: C_1  and  O_2
REMARK    2  A    between atoms: O_2  and  C_3
REMARK    3  A    between atoms: C_6  and  C_7
REMARK    4  A    between atoms: C_22  and  O_23
REMARK    5  A    between atoms: O_23  and  C_24
REMARK                            x       y       z     vdW  Elec       q    Type
REMARK                         _______ _______ _______ _____ _____    ______ ____
ROOT
ATOM      1  C   UNL     1      -1.719   6.052  -0.545  0.00  0.00    +0.000 A 
ATOM      2  C   UNL     1      -2.067   5.280  -1.710  0.00  0.00    +0.000 A 
ATOM      3  C   UNL     1      -1.587   3.929  -1.848  0.00  0.00    +0.000 A 
ATOM      4  O   UNL     1      -1.894   3.247  -2.875  0.00  0.00    +0.000 OA
ATOM      5  C   UNL     1      -0.759   3.350  -0.821  0.00  0.00    +0.000 A 
ATOM      6  C   UNL     1      -0.279   2.000  -0.959  0.00  0.00    +0.000 A 
ATOM      7  C   UNL     1      -0.627   1.227  -2.124  0.00  0.00    +0.000 A 
ATOM      8  C   UNL     1      -0.147  -0.124  -2.262  0.00  0.00    +0.000 A 
ATOM      9  O   UNL     1       0.627  -0.664  -1.303  0.00  0.00    +0.000 OA
ATOM     10  C   UNL     1       1.075  -1.926  -1.432  0.00  0.00    +0.000 A 
ATOM     11  C   UNL     1       0.727  -2.698  -2.596  0.00  0.00    +0.000 A 
ATOM     12  C   UNL     1      -0.495  -0.896  -3.427  0.00  0.00    +0.000 A 
ATOM     13  C   UNL     1      -0.411   4.123   0.344  0.00  0.00    +0.000 A 
ATOM     14  O   UNL     1      -2.168   7.314  -0.416  0.00  0.00    +0.000 OA
ENDROOT
BRANCH   1  18
ATOM     15  C   UNL     1       0.943   2.161   1.289  0.00  0.00    +0.000 A 
ATOM     16  C   UNL     1       0.463   3.512   1.427  0.00  0.00    +0.000 A 
ATOM     17  C   UNL     1      -0.365   4.091   0.401  0.00  0.00    +0.000 A 
ATOM     18  C   UNL     1      -0.845   5.442   0.539  0.00  0.00    +0.000 A 
ATOM     19  C   UNL     1      -0.497   6.214   1.703  0.00  0.00    +0.000 A 
ATOM     20  C   UNL     1       1.771   1.583   2.316  0.00  0.00    +0.000 A 
BRANCH  15  22
ATOM     21  C   UNL     1       1.073   0.068   0.005  0.00  0.00    +0.000 C 
ATOM     22  O   UNL     1       0.600   1.400   0.141  0.00  0.00    +0.000 OA
ENDBRANCH  15  22
BRANCH  20  23
ATOM     23  O   UNL     1       2.244   0.251   2.180  0.00  0.00    +0.000 OA
ATOM     24  C   UNL     1       3.060  -0.319   3.192  0.00  0.00    +0.000 C 
ENDBRANCH  20  23
ENDBRANCH   1  18
TORSDOF 3
