REMARK  Name = 
REMARK  7 active torsions:
REMARK  status: ('A' for Active; 'I' for Inactive)
REMARK    1  A    between atoms: C_1  and  O_2
REMARK    2  A    between atoms: O_2  and  C_3
REMARK    3  A    between atoms: C_6  and  C_7
REMARK    4  A    between atoms: N_9  and  N_10
REMARK    5  A    between atoms: N_10  and  C_11
REMARK    6  A    between atoms: C_11  and  N_13
REMARK    7  A    between atoms: C_14  and  C_16
REMARK                            x       y       z     vdW  Elec       q    Type
REMARK                         _______ _______ _______ _____ _____    ______ ____
ROOT
ATOM      1  N   UNL     1      -1.666  -3.165  -2.754  0.00  0.00    +0.000 N 
ATOM      2  H   UNL     1      -1.079  -2.335  -2.661  0.00  0.00    +0.000 HD
ENDROOT
BRANCH   1   5
ATOM      3  C   UNL     1      -1.784  -2.773  -5.223  0.00  0.00    +0.000 C 
ATOM      4  O   UNL     1      -2.207  -3.127  -6.368  0.00  0.00    +0.000 OA
ATOM      5  N   UNL     1      -2.139  -3.560  -4.033  0.00  0.00    +0.000 N 
ATOM      6  H   UNL     1      -2.725  -4.389  -4.126  0.00  0.00    +0.000 HD
BRANCH   3  10
ATOM      7  C   UNL     1       0.878   0.435  -2.358  0.00  0.00    +0.000 A 
ATOM      8  C   UNL     1       0.398   0.034  -3.655  0.00  0.00    +0.000 A 
ATOM      9  C   UNL     1      -0.430  -1.137  -3.787  0.00  0.00    +0.000 A 
ATOM     10  C   UNL     1      -0.910  -1.537  -5.084  0.00  0.00    +0.000 A 
ATOM     11  C   UNL     1      -0.562  -0.767  -6.250  0.00  0.00    +0.000 A 
ATOM     12  C   UNL     1       1.706   1.606  -2.227  0.00  0.00    +0.000 A 
BRANCH   7  14
ATOM     13  C   UNL     1       1.008   0.070   0.071  0.00  0.00    +0.000 C 
ATOM     14  O   UNL     1       0.535  -0.325  -1.208  0.00  0.00    +0.000 OA
ENDBRANCH   7  14
ENDBRANCH   3  10
ENDBRANCH   1   5
BRANCH   1  15
ATOM     15  C   UNL     1      -2.021  -3.951  -1.563  0.00  0.00    +0.000 C 
ATOM     16  S   UNL     1      -1.481  -3.501  -0.104  0.00  0.00    +0.000 S 
BRANCH  15  17
ATOM     17  N   UNL     1      -2.866  -5.146  -1.698  0.00  0.00    +0.000 N 
ATOM     18  C   UNL     1      -3.356  -5.555  -3.022  0.00  0.00    +0.000 C 
ATOM     19  O   UNL     1      -4.087  -6.589  -3.138  0.00  0.00    +0.000 OA
ATOM     20  H   UNL     1      -3.112  -5.692  -0.872  0.00  0.00    +0.000 HD
BRANCH  18  21
ATOM     21  C   UNL     1      -2.989  -4.742  -4.252  0.00  0.00    +0.000 A 
ATOM     22  C   UNL     1      -3.469  -5.143  -5.550  0.00  0.00    +0.000 A 
ATOM     23  C   UNL     1      -4.297  -6.314  -5.681  0.00  0.00    +0.000 A 
ATOM     24  C   UNL     1      -4.777  -6.714  -6.979  0.00  0.00    +0.000 A 
ATOM     25  C   UNL     1      -5.605  -7.885  -7.110  0.00  0.00    +0.000 A 
ATOM     26  C   UNL     1      -2.161  -3.571  -4.121  0.00  0.00    +0.000 A 
ENDBRANCH  18  21
ENDBRANCH  15  17
ENDBRANCH   1  15
TORSDOF 6
