REMARK  Name = 
REMARK  5 active torsions:
REMARK  status: ('A' for Active; 'I' for Inactive)
REMARK    1  A    between atoms: C_1  and  C_2
REMARK    2  A    between atoms: C_4  and  C_5
REMARK    3  A    between atoms: C_14  and  C_15
REMARK    4  A    between atoms: C_18  and  C_19
REMARK    5  A    between atoms: C_20  and  C_21
REMARK                            x       y       z     vdW  Elec       q    Type
REMARK                         _______ _______ _______ _____ _____    ______ ____
ROOT
ATOM      1  C   UNL     1       0.965  -0.059   0.073  0.00  0.00    +0.000 C 
ATOM      2  C   UNL     1       0.459   0.202  -1.336  0.00  0.00    +0.000 A 
ATOM      3  N   UNL     1       0.795   1.385  -1.990  0.00  0.00    +0.000 N 
ATOM      4  C   UNL     1       1.596   2.329  -1.352  0.00  0.00    +0.000 A 
ATOM      5  N   UNL     1       2.060   2.090  -0.061  0.00  0.00    +0.000 NA
ATOM      6  C   UNL     1      -0.369  -0.775  -1.996  0.00  0.00    +0.000 A 
ATOM      7  H   UNL     1       0.455   1.559  -2.935  0.00  0.00    +0.000 HD
ENDROOT
BRANCH   4   8
ATOM      8  C   UNL     1       1.963   3.620  -2.065  0.00  0.00    +0.000 A 
ATOM      9  C   UNL     1       1.483   3.867  -3.400  0.00  0.00    +0.000 A 
ATOM     10  F   UNL     1       0.719   2.965  -4.009  0.00  0.00    +0.000 F 
ATOM     11  C   UNL     1       1.831   5.090  -4.076  0.00  0.00    +0.000 A 
ATOM     12  C   UNL     1       2.659   6.067  -3.417  0.00  0.00    +0.000 A 
ATOM     13  C   UNL     1       3.007   7.290  -4.092  0.00  0.00    +0.000 A 
ATOM     14  C   UNL     1       2.791   4.597  -1.406  0.00  0.00    +0.000 A 
ATOM     15 CL   UNL     1       3.385   4.292   0.245  0.00  0.00    +0.000 Cl
ENDBRANCH   4   8
BRANCH   6  16
ATOM     16  C   UNL     1      -0.736  -2.066  -1.282  0.00  0.00    +0.000 A 
ATOM     17  C   UNL     1      -1.564  -3.043  -1.942  0.00  0.00    +0.000 A 
ATOM     18  C   UNL     1      -2.044  -2.796  -3.277  0.00  0.00    +0.000 A 
ATOM     19  C   UNL     1      -2.872  -3.773  -3.937  0.00  0.00    +0.000 A 
ATOM     20  N   UNL     1      -3.209  -4.956  -3.283  0.00  0.00    +0.000 NA
ATOM     21  C   UNL     1      -0.256  -2.313   0.053  0.00  0.00    +0.000 A 
BRANCH  19  22
ATOM     22  C   UNL     1      -3.379  -3.512  -5.346  0.00  0.00    +0.000 C 
ATOM     23  C   UNL     1      -3.814  -3.289  -6.555  0.00  0.00    +0.000 C 
BRANCH  23  24
ATOM     24  C   UNL     1      -4.320  -3.028  -7.964  0.00  0.00    +0.000 A 
ATOM     25  C   UNL     1      -3.449  -3.235  -9.092  0.00  0.00    +0.000 A 
ATOM     26  C   UNL     1      -2.098  -3.689  -8.885  0.00  0.00    +0.000 A 
ATOM     27  C   UNL     1      -1.227  -3.896 -10.013  0.00  0.00    +0.000 A 
ATOM     28  C   UNL     1       0.124  -4.350  -9.806  0.00  0.00    +0.000 A 
ATOM     29  C   UNL     1      -5.671  -2.575  -8.171  0.00  0.00    +0.000 A 
ENDBRANCH  23  24
ENDBRANCH  19  22
ENDBRANCH   6  16
TORSDOF 4
