REMARK  Name = 
REMARK  7 active torsions:
REMARK  status: ('A' for Active; 'I' for Inactive)
REMARK    1  A    between atoms: C_1  and  C_2
REMARK    2  A    between atoms: C_2  and  C_3
REMARK    3  A    between atoms: C_2  and  C_4
REMARK    4  A    between atoms: N_9  and  C_10
REMARK    5  A    between atoms: C_13  and  N_14
REMARK    6  A    between atoms: C_15  and  C_17
REMARK    7  A    between atoms: C_20  and  N_21
REMARK                            x       y       z     vdW  Elec       q    Type
REMARK                         _______ _______ _______ _____ _____    ______ ____
ROOT
ATOM      1  C   UNL     1      -4.195  -2.518   0.852  0.00  0.00    +0.000 A 
ATOM      2  C   UNL     1      -5.611  -2.272   0.759  0.00  0.00    +0.000 A 
ATOM      3  C   UNL     1      -6.091  -1.003   0.276  0.00  0.00    +0.000 A 
ATOM      4  C   UNL     1      -7.507  -0.758   0.182  0.00  0.00    +0.000 A 
ATOM      5  C   UNL     1      -8.443  -1.781   0.571  0.00  0.00    +0.000 A 
ATOM      6  C   UNL     1      -3.715  -3.787   1.336  0.00  0.00    +0.000 A 
ATOM      7 CL   UNL     1      -1.965  -4.091   1.451  0.00  0.00    +0.000 Cl
ENDROOT
BRANCH   1  13
ATOM      8  C   UNL     1      -1.018  -0.257   1.320  0.00  0.00    +0.000 C 
ATOM      9  O   UNL     1      -1.653  -1.286   1.711  0.00  0.00    +0.000 OA
ATOM     10  N   UNL     1      -1.753   0.932   0.867  0.00  0.00    +0.000 N 
ATOM     11  C   UNL     1      -3.223   0.932   0.867  0.00  0.00    +0.000 C 
ATOM     12  C   UNL     1      -3.730  -0.179  -0.038  0.00  0.00    +0.000 C 
ATOM     13  N   UNL     1      -3.240  -1.474   0.455  0.00  0.00    +0.000 N 
ATOM     14  C   UNL     1      -1.794  -1.725   0.550  0.00  0.00    +0.000 C 
ATOM     15  C   UNL     1      -1.018   2.122   0.414  0.00  0.00    +0.000 C 
BRANCH   8  17
ATOM     16  C   UNL     1       1.009  -0.029  -0.095  0.00  0.00    +0.000 C 
ATOM     17  C   UNL     1       0.502  -0.257   1.320  0.00  0.00    +0.000 C 
ATOM     18  C   UNL     1       1.009   0.854   2.225  0.00  0.00    +0.000 C 
ENDBRANCH   8  17
ENDBRANCH   1  13
BRANCH   4  19
ATOM     19  N   UNL     1      -7.997   0.538  -0.311  0.00  0.00    +0.000 N 
ATOM     20  C   UNL     1      -9.442   0.789  -0.407  0.00  0.00    +0.000 C 
ATOM     21  O   UNL     1      -9.866   1.909  -0.833  0.00  0.00    +0.000 OA
ATOM     22  H   UNL     1      -7.334   1.262  -0.587  0.00  0.00    +0.000 HD
BRANCH  20  23
ATOM     23  C   UNL     1     -10.430  -0.291   0.004  0.00  0.00    +0.000 A 
ATOM     24  C   UNL     1     -11.846  -0.045  -0.089  0.00  0.00    +0.000 A 
ATOM     25  C   UNL     1     -12.326   1.224  -0.572  0.00  0.00    +0.000 A 
ATOM     26  C   UNL     1     -13.742   1.470  -0.666  0.00  0.00    +0.000 A 
ATOM     27  O   UNL     1      -9.981  -1.476   0.456  0.00  0.00    +0.000 OA
BRANCH  26  28
ATOM     28  N   UNL     1     -14.697   0.426  -0.268  0.00  0.00    +0.000 N 
ATOM     29  O   UNL     1     -14.288  -0.655   0.143  0.00  0.00    +0.000 OA
ATOM     30  O   UNL     1     -16.044   0.660  -0.358  0.00  0.00    +0.000 OA
ENDBRANCH  26  28
ENDBRANCH  20  23
ENDBRANCH   4  19
TORSDOF 5
