REMARK  Name = 
REMARK  11 active torsions:
REMARK  status: ('A' for Active; 'I' for Inactive)
REMARK    1  A    between atoms: C_1  and  O_2
REMARK    2  A    between atoms: O_2  and  C_3
REMARK    3  A    between atoms: C_5  and  C_6
REMARK    4  A    between atoms: N_11  and  C_12
REMARK    5  A    between atoms: C_12  and  C_13
REMARK    6  A    between atoms: N_15  and  C_16
REMARK    7  A    between atoms: C_19  and  O_20
REMARK    8  A    between atoms: C_26  and  O_27
REMARK    9  A    between atoms: O_27  and  C_28
REMARK   10  A    between atoms: C_29  and  O_30
REMARK   11  A    between atoms: O_30  and  C_31
REMARK                            x       y       z     vdW  Elec       q    Type
REMARK                         _______ _______ _______ _____ _____    ______ ____
ROOT
ATOM      1  C   UNL     1      -1.001  -5.226  -1.332  0.00  0.00    +0.000 C 
ATOM      2  C   UNL     1      -1.783  -5.910  -0.455  0.00  0.00    +0.000 C 
ATOM      3  S   UNL     1      -2.220  -5.167   1.137  0.00  0.00    +0.000 S 
ATOM      4  C   UNL     1      -3.261  -6.315   2.073  0.00  0.00    +0.000 C 
ATOM      5  S   UNL     1      -3.652  -7.754   1.440  0.00  0.00    +0.000 S 
ATOM      6  N   UNL     1      -3.751  -5.942   3.408  0.00  0.00    +0.000 N 
ATOM      7  C   UNL     1      -2.290  -7.298  -0.810  0.00  0.00    +0.000 C 
ATOM      8  O   UNL     1      -1.983  -7.819  -1.928  0.00  0.00    +0.000 OA
ENDROOT
BRANCH   1  11
ATOM      9  C   UNL     1       0.814  -1.798  -1.569  0.00  0.00    +0.000 A 
ATOM     10  C   UNL     1       0.334  -3.113  -1.906  0.00  0.00    +0.000 A 
ATOM     11  C   UNL     1      -0.494  -3.837  -0.977  0.00  0.00    +0.000 A 
ATOM     12  C   UNL     1      -0.842  -3.246   0.290  0.00  0.00    +0.000 A 
ATOM     13  C   UNL     1      -0.362  -1.931   0.627  0.00  0.00    +0.000 A 
ATOM     14  C   UNL     1       1.642  -1.073  -2.499  0.00  0.00    +0.000 A 
BRANCH   9  16
ATOM     15  C   UNL     1       0.944   0.082   0.012  0.00  0.00    +0.000 C 
ATOM     16  O   UNL     1       0.471  -1.215  -0.320  0.00  0.00    +0.000 OA
ENDBRANCH   9  16
BRANCH  13  17
ATOM     17  O   UNL     1       0.454  -1.217  -0.290  0.00  0.00    +0.000 OA
ATOM     18  C   UNL     1       0.927   0.080   0.043  0.00  0.00    +0.000 C 
ENDBRANCH  13  17
BRANCH  14  19
ATOM     19  O   UNL     1       2.115   0.224  -2.166  0.00  0.00    +0.000 OA
ATOM     20  C   UNL     1       2.931   0.938  -3.083  0.00  0.00    +0.000 C 
ENDBRANCH  14  19
ENDBRANCH   1  11
BRANCH   6  21
ATOM     21  C   UNL     1      -4.596  -6.874   4.168  0.00  0.00    +0.000 C 
BRANCH  21  22
ATOM     22  C   UNL     1      -5.863  -7.167   3.380  0.00  0.00    +0.000 C 
ATOM     23  O   UNL     1      -6.133  -8.358   3.031  0.00  0.00    +0.000 OA
ATOM     24  N   UNL     1      -6.775  -6.071   3.022  0.00  0.00    +0.000 N 
ATOM     25  H   UNL     1      -7.625  -6.268   2.494  0.00  0.00    +0.000 HD
BRANCH  24  26
ATOM     26  C   UNL     1      -6.463  -4.693   3.426  0.00  0.00    +0.000 A 
ATOM     27  C   UNL     1      -5.263  -4.415   4.172  0.00  0.00    +0.000 A 
ATOM     28  C   UNL     1      -4.369  -5.489   4.523  0.00  0.00    +0.000 A 
ATOM     29  C   UNL     1      -3.169  -5.211   5.269  0.00  0.00    +0.000 A 
ATOM     30  C   UNL     1      -2.862  -3.861   5.664  0.00  0.00    +0.000 A 
ATOM     31  C   UNL     1      -7.357  -3.619   3.075  0.00  0.00    +0.000 A 
BRANCH  29  32
ATOM     32  O   UNL     1      -2.287  -6.269   5.615  0.00  0.00    +0.000 OA
ATOM     33  H   UNL     1      -2.500  -7.207   5.340  0.00  0.00    +0.000 HD
ENDBRANCH  29  32
ENDBRANCH  24  26
ENDBRANCH  21  22
ENDBRANCH   6  21
TORSDOF 8
