REMARK  Name = 
REMARK  6 active torsions:
REMARK  status: ('A' for Active; 'I' for Inactive)
REMARK    1  A    between atoms: C_1  and  O_2
REMARK    2  A    between atoms: O_2  and  C_3
REMARK    3  A    between atoms: C_6  and  C_7
REMARK    4  A    between atoms: C_7  and  N_9
REMARK    5  A    between atoms: N_14  and  O_15
REMARK    6  A    between atoms: C_21  and  C_22
REMARK                            x       y       z     vdW  Elec       q    Type
REMARK                         _______ _______ _______ _____ _____    ______ ____
ROOT
ATOM      1  C   UNL     1       0.866   2.509  -0.373  0.00  0.00    +0.000 A 
ATOM      2  C   UNL     1       0.386   3.614  -1.162  0.00  0.00    +0.000 A 
ATOM      3  C   UNL     1      -0.442   3.370  -2.315  0.00  0.00    +0.000 A 
ATOM      4  C   UNL     1      -0.922   4.475  -3.104  0.00  0.00    +0.000 A 
ATOM      5  C   UNL     1      -0.574   5.824  -2.740  0.00  0.00    +0.000 A 
ATOM      6  C   UNL     1      -1.054   6.929  -3.529  0.00  0.00    +0.000 A 
ATOM      7  C   UNL     1      -1.882   6.685  -4.682  0.00  0.00    +0.000 A 
ATOM      8  N   UNL     1      -2.219   5.380  -5.034  0.00  0.00    +0.000 NA
ATOM      9  N   UNL     1       0.227   6.060  -1.626  0.00  0.00    +0.000 N 
ENDROOT
BRANCH   7  10
ATOM     10  C   UNL     1      -2.389   7.851  -5.515  0.00  0.00    +0.000 C 
ATOM     11  F   UNL     1      -1.946   7.730  -6.763  0.00  0.00    +0.000 F 
ATOM     12  F   UNL     1      -3.719   7.851  -5.515  0.00  0.00    +0.000 F 
ATOM     13  F   UNL     1      -1.946   8.992  -4.996  0.00  0.00    +0.000 F 
ENDBRANCH   7  10
BRANCH   1  15
ATOM     14  C   UNL     1       0.996   0.089   0.046  0.00  0.00    +0.000 C 
ATOM     15  O   UNL     1       0.523   1.178  -0.732  0.00  0.00    +0.000 OA
ENDBRANCH   1  15
BRANCH   4  16
ATOM     16  C   UNL     1      -1.796   4.217  -4.321  0.00  0.00    +0.000 C 
ATOM     17  O   UNL     1      -2.220   5.192  -5.017  0.00  0.00    +0.000 OA
BRANCH  16  18
ATOM     18  N   UNL     1      -2.151   2.840  -4.692  0.00  0.00    +0.000 NA
ATOM     19  C   UNL     1      -2.908   2.616  -5.745  0.00  0.00    +0.000 A 
ATOM     20  C   UNL     1      -3.255   1.267  -6.109  0.00  0.00    +0.000 A 
ATOM     21 CL   UNL     1      -2.662  -0.099  -5.134  0.00  0.00    +0.000 Cl
ATOM     22  C   UNL     1      -4.083   1.023  -7.262  0.00  0.00    +0.000 A 
ATOM     23  N   UNL     1      -4.548   2.091  -8.025  0.00  0.00    +0.000 N 
ATOM     24  C   UNL     1      -4.211   3.396  -7.673  0.00  0.00    +0.000 A 
ATOM     25  C   UNL     1      -3.388   3.721  -6.534  0.00  0.00    +0.000 A 
ATOM     26 CL   UNL     1      -2.958   5.389  -6.085  0.00  0.00    +0.000 Cl
BRANCH  23  27
ATOM     27  O   UNL     1      -5.335   1.859  -9.122  0.00  0.00    +0.000 OA
ATOM     28  H   UNL     1      -5.577   0.922  -9.374  0.00  0.00    +0.000 HD
ENDBRANCH  23  27
ENDBRANCH  16  18
ENDBRANCH   4  16
TORSDOF 5
