REMARK  Name = 
REMARK  9 active torsions:
REMARK  status: ('A' for Active; 'I' for Inactive)
REMARK    1  A    between atoms: C_1  and  C_2
REMARK    2  A    between atoms: C_2  and  C_3
REMARK    3  A    between atoms: C_3  and  C_4
REMARK    4  A    between atoms: C_4  and  C_5
REMARK    5  A    between atoms: C_5  and  C_6
REMARK    6  A    between atoms: C_6  and  C_7
REMARK    7  A    between atoms: C_11  and  S_12
REMARK    8  A    between atoms: S_12  and  C_15
REMARK    9  A    between atoms: C_28  and  O_29
REMARK                            x       y       z     vdW  Elec       q    Type
REMARK                         _______ _______ _______ _____ _____    ______ ____
ROOT
ATOM      1  C   UNL     1      -1.063  -3.609  -3.708  0.00  0.00    +0.000 A 
ATOM      2  C   UNL     1       0.352  -3.830  -3.851  0.00  0.00    +0.000 A 
ATOM      3  C   UNL     1       1.288  -2.911  -3.256  0.00  0.00    +0.000 A 
ATOM      4  C   UNL     1       0.808  -1.771  -2.519  0.00  0.00    +0.000 A 
ATOM      5  C   UNL     1      -0.608  -1.550  -2.376  0.00  0.00    +0.000 A 
ATOM      6  C   UNL     1      -1.544  -2.469  -2.970  0.00  0.00    +0.000 A 
ATOM      7  O   UNL     1      -1.120  -3.475  -3.621  0.00  0.00    +0.000 OA
ATOM      8  O   UNL     1      -2.866  -2.263  -2.837  0.00  0.00    +0.000 OA
ATOM      9  C   UNL     1       2.704  -3.132  -3.399  0.00  0.00    +0.000 A 
ATOM     10  C   UNL     1       3.184  -4.272  -4.137  0.00  0.00    +0.000 A 
ATOM     11  C   UNL     1      -1.999  -4.528  -4.302  0.00  0.00    +0.000 A 
ENDROOT
BRANCH   5  12
ATOM     12  S   UNL     1      -1.211  -0.117  -1.449  0.00  0.00    +0.000 S 
ATOM     13  O   UNL     1      -2.061   0.764  -2.367  0.00  0.00    +0.000 OA
ATOM     14  O   UNL     1      -2.061  -0.594  -0.269  0.00  0.00    +0.000 OA
BRANCH  12  15
ATOM     15  C   UNL     1       0.197   0.838  -0.831  0.00  0.00    +0.000 A 
ATOM     16  C   UNL     1      -0.027   2.032  -0.058  0.00  0.00    +0.000 A 
ATOM     17  C   UNL     1      -1.371   2.467   0.223  0.00  0.00    +0.000 A 
ATOM     18  C   UNL     1      -1.595   3.661   0.996  0.00  0.00    +0.000 A 
ATOM     19  F   UNL     1      -2.836   4.063   1.256  0.00  0.00    +0.000 F 
ATOM     20  C   UNL     1      -0.475   4.421   1.488  0.00  0.00    +0.000 A 
ATOM     21 CL   UNL     1      -0.751   5.898   2.443  0.00  0.00    +0.000 Cl
ATOM     22  C   UNL     1       1.541   0.403  -1.112  0.00  0.00    +0.000 A 
ENDBRANCH  12  15
ENDBRANCH   5  12
BRANCH  11  23
ATOM     23  O   UNL     1      -3.395  -4.310  -4.161  0.00  0.00    +0.000 OA
ATOM     24  H   UNL     1      -4.045  -4.948  -4.574  0.00  0.00    +0.000 HD
ENDBRANCH  11  23
BRANCH   1  25
ATOM     25  C   UNL     1      -1.570  -2.406  -2.929  0.00  0.00    +0.000 C 
BRANCH  25  26
ATOM     26  C   UNL     1      -1.063  -2.478  -1.498  0.00  0.00    +0.000 C 
BRANCH  26  27
ATOM     27  C   UNL     1       0.457  -2.478  -1.498  0.00  0.00    +0.000 C 
BRANCH  27  28
ATOM     28  C   UNL     1       0.963  -1.203  -2.151  0.00  0.00    +0.000 C 
BRANCH  28  30
ATOM     29  C   UNL     1       0.963  -0.072   0.059  0.00  0.00    +0.000 C 
ATOM     30  C   UNL     1       0.457   0.001  -1.372  0.00  0.00    +0.000 C 
ENDBRANCH  28  30
ENDBRANCH  27  28
ENDBRANCH  26  27
ENDBRANCH  25  26
ENDBRANCH   1  25
TORSDOF 8
