MODEL 1
REMARK VINA RESULT:    -7.135      0.000      0.000
REMARK INTER + INTRA:          -9.166
REMARK INTER:                  -8.387
REMARK INTRA:                  -0.779
REMARK UNBOUND:                -0.779
REMARK  Name = 
REMARK  4 active torsions:
REMARK  status: ('A' for Active; 'I' for Inactive)
REMARK    1  A    between atoms: C_1  and  O_2
REMARK    2  A    between atoms: O_2  and  C_3
REMARK    3  A    between atoms: C_8  and  C_9
REMARK    4  A    between atoms: N_11  and  C_12
REMARK                            x       y       z     vdW  Elec       q    Type
REMARK                         _______ _______ _______ _____ _____    ______ ____
ROOT
ATOM      1  C   UNL     1      14.453  20.182  23.572  0.00  0.00    +0.000 A 
ATOM      2  C   UNL     1      15.872  20.038  23.768  0.00  0.00    +0.000 A 
ATOM      3  C   UNL     1      16.497  20.597  24.940  0.00  0.00    +0.000 A 
ATOM      4  C   UNL     1      17.917  20.454  25.136  0.00  0.00    +0.000 A 
ATOM      5  C   UNL     1      18.711  19.750  24.162  0.00  0.00    +0.000 A 
ATOM      6  C   UNL     1      18.086  19.192  22.991  0.00  0.00    +0.000 A 
ATOM      7  C   UNL     1      16.666  19.336  22.794  0.00  0.00    +0.000 A 
ATOM      8  N   UNL     1      15.898  20.016  23.736  0.00  0.00    +0.000 NA
ATOM      9  C   UNL     1      18.542  21.012  26.307  0.00  0.00    +0.000 A 
ATOM     10  C   UNL     1      13.828  19.623  22.401  0.00  0.00    +0.000 A 
ENDROOT
BRANCH   6  11
ATOM     11  C   UNL     1      18.924  18.450  21.963  0.00  0.00    +0.000 C 
ATOM     12  O   UNL     1      19.354  19.060  20.934  0.00  0.00    +0.000 OA
ATOM     13  N   UNL     1      19.238  17.027  22.159  0.00  0.00    +0.000 N 
ATOM     14  H   UNL     1      19.802  16.530  21.468  0.00  0.00    +0.000 HD
BRANCH  13  15
ATOM     15  C   UNL     1      18.741  16.321  23.348  0.00  0.00    +0.000 C 
ATOM     16  C   UNL     1      19.799  15.345  23.837  0.00  0.00    +0.000 C 
ATOM     17  C   UNL     1      21.066  16.107  24.191  0.00  0.00    +0.000 C 
ATOM     18  C   UNL     1      20.763  17.114  25.288  0.00  0.00    +0.000 C 
ATOM     19  C   UNL     1      17.475  15.561  22.994  0.00  0.00    +0.000 C 
ENDBRANCH  13  15
ENDBRANCH   6  11
BRANCH   1  21
ATOM     20  C   UNL     1      12.335  20.462  24.791  0.00  0.00    +0.000 C 
ATOM     21  O   UNL     1      13.670  20.875  24.532  0.00  0.00    +0.000 OA
ENDBRANCH   1  21
TORSDOF 3
ENDMDL
MODEL 2
REMARK VINA RESULT:    -6.668     15.422     17.824
REMARK INTER + INTRA:          -8.616
REMARK INTER:                  -8.016
REMARK INTRA:                  -0.600
REMARK UNBOUND:                -0.779
REMARK  Name = 
REMARK  4 active torsions:
REMARK  status: ('A' for Active; 'I' for Inactive)
REMARK    1  A    between atoms: C_1  and  O_2
REMARK    2  A    between atoms: O_2  and  C_3
REMARK    3  A    between atoms: C_8  and  C_9
REMARK    4  A    between atoms: N_11  and  C_12
REMARK                            x       y       z     vdW  Elec       q    Type
REMARK                         _______ _______ _______ _____ _____    ______ ____
ROOT
ATOM      1  C   UNL     1      12.682   1.225  26.461  0.00  0.00    +0.000 A 
ATOM      2  C   UNL     1      13.743   1.851  27.208  0.00  0.00    +0.000 A 
ATOM      3  C   UNL     1      15.026   1.205  27.315  0.00  0.00    +0.000 A 
ATOM      4  C   UNL     1      16.086   1.831  28.062  0.00  0.00    +0.000 A 
ATOM      5  C   UNL     1      15.864   3.103  28.701  0.00  0.00    +0.000 A 
ATOM      6  C   UNL     1      14.581   3.748  28.593  0.00  0.00    +0.000 A 
ATOM      7  C   UNL     1      13.520   3.122  27.846  0.00  0.00    +0.000 A 
ATOM      8  N   UNL     1      13.735   1.893  27.229  0.00  0.00    +0.000 NA
ATOM      9  C   UNL     1      17.369   1.185  28.170  0.00  0.00    +0.000 A 
ATOM     10  C   UNL     1      11.400   1.871  26.353  0.00  0.00    +0.000 A 
ENDROOT
BRANCH   6  11
ATOM     11  C   UNL     1      14.347   5.090  29.267  0.00  0.00    +0.000 C 
ATOM     12  O   UNL     1      14.857   6.145  28.776  0.00  0.00    +0.000 OA
ATOM     13  N   UNL     1      13.530   5.167  30.487  0.00  0.00    +0.000 N 
ATOM     14  H   UNL     1      13.373   6.068  30.939  0.00  0.00    +0.000 HD
BRANCH  13  15
ATOM     15  C   UNL     1      12.939   3.947  31.055  0.00  0.00    +0.000 C 
ATOM     16  C   UNL     1      11.655   4.299  31.788  0.00  0.00    +0.000 C 
ATOM     17  C   UNL     1      10.674   4.932  30.815  0.00  0.00    +0.000 C 
ATOM     18  C   UNL     1      10.364   3.951  29.697  0.00  0.00    +0.000 C 
ATOM     19  C   UNL     1      13.921   3.314  32.027  0.00  0.00    +0.000 C 
ENDBRANCH  13  15
ENDBRANCH   6  11
BRANCH   1  21
ATOM     20  C   UNL     1      12.921  -0.117  24.413  0.00  0.00    +0.000 C 
ATOM     21  O   UNL     1      12.901  -0.028  25.831  0.00  0.00    +0.000 OA
ENDBRANCH   1  21
TORSDOF 3
ENDMDL
MODEL 3
REMARK VINA RESULT:    -6.661     13.907     15.872
REMARK INTER + INTRA:          -8.608
REMARK INTER:                  -7.803
REMARK INTRA:                  -0.805
REMARK UNBOUND:                -0.779
REMARK  Name = 
REMARK  4 active torsions:
REMARK  status: ('A' for Active; 'I' for Inactive)
REMARK    1  A    between atoms: C_1  and  O_2
REMARK    2  A    between atoms: O_2  and  C_3
REMARK    3  A    between atoms: C_8  and  C_9
REMARK    4  A    between atoms: N_11  and  C_12
REMARK                            x       y       z     vdW  Elec       q    Type
REMARK                         _______ _______ _______ _____ _____    ______ ____
ROOT
ATOM      1  C   UNL     1      13.401   8.117  30.204  0.00  0.00    +0.000 A 
ATOM      2  C   UNL     1      12.956   6.748  30.149  0.00  0.00    +0.000 A 
ATOM      3  C   UNL     1      11.552   6.452  30.021  0.00  0.00    +0.000 A 
ATOM      4  C   UNL     1      11.107   5.084  29.966  0.00  0.00    +0.000 A 
ATOM      5  C   UNL     1      12.066   4.012  30.039  0.00  0.00    +0.000 A 
ATOM      6  C   UNL     1      13.469   4.308  30.167  0.00  0.00    +0.000 A 
ATOM      7  C   UNL     1      13.914   5.677  30.222  0.00  0.00    +0.000 A 
ATOM      8  N   UNL     1      12.988   6.713  30.152  0.00  0.00    +0.000 NA
ATOM      9  C   UNL     1       9.704   4.787  29.838  0.00  0.00    +0.000 A 
ATOM     10  C   UNL     1      14.804   8.413  30.333  0.00  0.00    +0.000 A 
ENDROOT
BRANCH   6  11
ATOM     11  C   UNL     1      14.481   3.176  30.244  0.00  0.00    +0.000 C 
ATOM     12  O   UNL     1      14.745   2.635  31.363  0.00  0.00    +0.000 OA
ATOM     13  N   UNL     1      15.153   2.707  29.023  0.00  0.00    +0.000 N 
ATOM     14  H   UNL     1      15.832   1.947  29.076  0.00  0.00    +0.000 HD
BRANCH  13  15
ATOM     15  C   UNL     1      14.848   3.332  27.729  0.00  0.00    +0.000 C 
ATOM     16  C   UNL     1      14.817   2.267  26.645  0.00  0.00    +0.000 C 
ATOM     17  C   UNL     1      13.748   1.238  26.977  0.00  0.00    +0.000 C 
ATOM     18  C   UNL     1      12.393   1.922  27.052  0.00  0.00    +0.000 C 
ATOM     19  C   UNL     1      15.917   4.361  27.399  0.00  0.00    +0.000 C 
ENDBRANCH  13  15
ENDBRANCH   6  11
BRANCH   1  21
ATOM     20  C   UNL     1      12.894  10.503  29.886  0.00  0.00    +0.000 C 
ATOM     21  O   UNL     1      12.456   9.174  30.132  0.00  0.00    +0.000 OA
ENDBRANCH   1  21
TORSDOF 3
ENDMDL
MODEL 4
REMARK VINA RESULT:    -6.639     15.769     18.194
REMARK INTER + INTRA:          -8.583
REMARK INTER:                  -8.165
REMARK INTRA:                  -0.418
REMARK UNBOUND:                -0.779
REMARK  Name = 
REMARK  4 active torsions:
REMARK  status: ('A' for Active; 'I' for Inactive)
REMARK    1  A    between atoms: C_1  and  O_2
REMARK    2  A    between atoms: O_2  and  C_3
REMARK    3  A    between atoms: C_8  and  C_9
REMARK    4  A    between atoms: N_11  and  C_12
REMARK                            x       y       z     vdW  Elec       q    Type
REMARK                         _______ _______ _______ _____ _____    ______ ____
ROOT
ATOM      1  C   UNL     1      13.809   0.231  26.273  0.00  0.00    +0.000 A 
ATOM      2  C   UNL     1      13.222   1.367  26.935  0.00  0.00    +0.000 A 
ATOM      3  C   UNL     1      11.790   1.518  26.972  0.00  0.00    +0.000 A 
ATOM      4  C   UNL     1      11.202   2.653  27.635  0.00  0.00    +0.000 A 
ATOM      5  C   UNL     1      12.047   3.638  28.261  0.00  0.00    +0.000 A 
ATOM      6  C   UNL     1      13.479   3.487  28.223  0.00  0.00    +0.000 A 
ATOM      7  C   UNL     1      14.066   2.351  27.561  0.00  0.00    +0.000 A 
ATOM      8  N   UNL     1      13.250   1.399  26.955  0.00  0.00    +0.000 NA
ATOM      9  C   UNL     1       9.771   2.804  27.673  0.00  0.00    +0.000 A 
ATOM     10  C   UNL     1      15.241   0.080  26.235  0.00  0.00    +0.000 A 
ENDROOT
BRANCH   6  11
ATOM     11  C   UNL     1      14.370   4.526  28.884  0.00  0.00    +0.000 C 
ATOM     12  O   UNL     1      15.139   5.247  28.174  0.00  0.00    +0.000 OA
ATOM     13  N   UNL     1      14.341   4.698  30.344  0.00  0.00    +0.000 N 
ATOM     14  H   UNL     1      14.940   5.396  30.787  0.00  0.00    +0.000 HD
BRANCH  13  15
ATOM     15  C   UNL     1      13.452   3.865  31.165  0.00  0.00    +0.000 C 
ATOM     16  C   UNL     1      12.836   4.712  32.265  0.00  0.00    +0.000 C 
ATOM     17  C   UNL     1      12.037   5.847  31.644  0.00  0.00    +0.000 C 
ATOM     18  C   UNL     1      10.934   5.271  30.771  0.00  0.00    +0.000 C 
ATOM     19  C   UNL     1      14.251   2.731  31.786  0.00  0.00    +0.000 C 
ENDBRANCH  13  15
ENDBRANCH   6  11
BRANCH   1  21
ATOM     20  C   UNL     1      12.920  -2.061  26.176  0.00  0.00    +0.000 C 
ATOM     21  O   UNL     1      12.977  -0.740  25.656  0.00  0.00    +0.000 OA
ENDBRANCH   1  21
TORSDOF 3
ENDMDL
MODEL 5
REMARK VINA RESULT:    -6.474     15.711     17.872
REMARK INTER + INTRA:          -8.389
REMARK INTER:                  -7.926
REMARK INTRA:                  -0.462
REMARK UNBOUND:                -0.779
REMARK  Name = 
REMARK  4 active torsions:
REMARK  status: ('A' for Active; 'I' for Inactive)
REMARK    1  A    between atoms: C_1  and  O_2
REMARK    2  A    between atoms: O_2  and  C_3
REMARK    3  A    between atoms: C_8  and  C_9
REMARK    4  A    between atoms: N_11  and  C_12
REMARK                            x       y       z     vdW  Elec       q    Type
REMARK                         _______ _______ _______ _____ _____    ______ ____
ROOT
ATOM      1  C   UNL     1      10.514   2.094  27.235  0.00  0.00    +0.000 A 
ATOM      2  C   UNL     1      11.942   2.193  27.399  0.00  0.00    +0.000 A 
ATOM      3  C   UNL     1      12.800   1.165  26.869  0.00  0.00    +0.000 A 
ATOM      4  C   UNL     1      14.228   1.264  27.034  0.00  0.00    +0.000 A 
ATOM      5  C   UNL     1      14.796   2.391  27.728  0.00  0.00    +0.000 A 
ATOM      6  C   UNL     1      13.937   3.418  28.258  0.00  0.00    +0.000 A 
ATOM      7  C   UNL     1      12.510   3.319  28.093  0.00  0.00    +0.000 A 
ATOM      8  N   UNL     1      11.960   2.230  27.423  0.00  0.00    +0.000 NA
ATOM      9  C   UNL     1      15.086   0.237  26.504  0.00  0.00    +0.000 A 
ATOM     10  C   UNL     1       9.655   3.122  27.765  0.00  0.00    +0.000 A 
ENDROOT
BRANCH   6  11
ATOM     11  C   UNL     1      14.537   4.607  28.990  0.00  0.00    +0.000 C 
ATOM     12  O   UNL     1      15.252   5.448  28.359  0.00  0.00    +0.000 OA
ATOM     13  N   UNL     1      14.291   4.785  30.429  0.00  0.00    +0.000 N 
ATOM     14  H   UNL     1      14.694   5.583  30.920  0.00  0.00    +0.000 HD
BRANCH  13  15
ATOM     15  C   UNL     1      13.465   3.813  31.159  0.00  0.00    +0.000 C 
ATOM     16  C   UNL     1      12.696   4.526  32.259  0.00  0.00    +0.000 C 
ATOM     17  C   UNL     1      11.802   5.591  31.643  0.00  0.00    +0.000 C 
ATOM     18  C   UNL     1      10.822   4.937  30.683  0.00  0.00    +0.000 C 
ATOM     19  C   UNL     1      14.358   2.749  31.774  0.00  0.00    +0.000 C 
ENDBRANCH  13  15
ENDBRANCH   6  11
BRANCH   1  21
ATOM     20  C   UNL     1       9.274  -0.030  27.278  0.00  0.00    +0.000 C 
ATOM     21  O   UNL     1       9.954   0.984  26.550  0.00  0.00    +0.000 OA
ENDBRANCH   1  21
TORSDOF 3
ENDMDL
MODEL 6
REMARK VINA RESULT:    -6.321     14.043     15.814
REMARK INTER + INTRA:          -8.208
REMARK INTER:                  -7.508
REMARK INTRA:                  -0.701
REMARK UNBOUND:                -0.779
REMARK  Name = 
REMARK  4 active torsions:
REMARK  status: ('A' for Active; 'I' for Inactive)
REMARK    1  A    between atoms: C_1  and  O_2
REMARK    2  A    between atoms: O_2  and  C_3
REMARK    3  A    between atoms: C_8  and  C_9
REMARK    4  A    between atoms: N_11  and  C_12
REMARK                            x       y       z     vdW  Elec       q    Type
REMARK                         _______ _______ _______ _____ _____    ______ ____
ROOT
ATOM      1  C   UNL     1      10.160   5.979  29.046  0.00  0.00    +0.000 A 
ATOM      2  C   UNL     1      11.558   5.994  29.393  0.00  0.00    +0.000 A 
ATOM      3  C   UNL     1      12.257   7.249  29.511  0.00  0.00    +0.000 A 
ATOM      4  C   UNL     1      13.655   7.264  29.857  0.00  0.00    +0.000 A 
ATOM      5  C   UNL     1      14.353   6.025  30.085  0.00  0.00    +0.000 A 
ATOM      6  C   UNL     1      13.654   4.772  29.967  0.00  0.00    +0.000 A 
ATOM      7  C   UNL     1      12.256   4.757  29.621  0.00  0.00    +0.000 A 
ATOM      8  N   UNL     1      11.581   5.954  29.400  0.00  0.00    +0.000 NA
ATOM      9  C   UNL     1      14.353   8.518  29.975  0.00  0.00    +0.000 A 
ATOM     10  C   UNL     1       9.461   4.726  28.928  0.00  0.00    +0.000 A 
ENDROOT
BRANCH   6  11
ATOM     11  C   UNL     1      14.392   3.465  30.208  0.00  0.00    +0.000 C 
ATOM     12  O   UNL     1      14.517   3.014  31.389  0.00  0.00    +0.000 OA
ATOM     13  N   UNL     1      14.962   2.723  29.074  0.00  0.00    +0.000 N 
ATOM     14  H   UNL     1      15.457   1.845  29.236  0.00  0.00    +0.000 HD
BRANCH  13  15
ATOM     15  C   UNL     1      14.818   3.243  27.707  0.00  0.00    +0.000 C 
ATOM     16  C   UNL     1      14.749   2.084  26.727  0.00  0.00    +0.000 C 
ATOM     17  C   UNL     1      13.554   1.206  27.064  0.00  0.00    +0.000 C 
ATOM     18  C   UNL     1      12.278   2.027  26.967  0.00  0.00    +0.000 C 
ATOM     19  C   UNL     1      16.012   4.121  27.371  0.00  0.00    +0.000 C 
ENDBRANCH  13  15
ENDBRANCH   6  11
BRANCH   1  21
ATOM     20  C   UNL     1       8.276   7.210  28.052  0.00  0.00    +0.000 C 
ATOM     21  O   UNL     1       9.471   7.200  28.822  0.00  0.00    +0.000 OA
ENDBRANCH   1  21
TORSDOF 3
ENDMDL
MODEL 7
REMARK VINA RESULT:    -6.196      2.039      5.105
REMARK INTER + INTRA:          -8.062
REMARK INTER:                  -7.322
REMARK INTRA:                  -0.740
REMARK UNBOUND:                -0.779
REMARK  Name = 
REMARK  4 active torsions:
REMARK  status: ('A' for Active; 'I' for Inactive)
REMARK    1  A    between atoms: C_1  and  O_2
REMARK    2  A    between atoms: O_2  and  C_3
REMARK    3  A    between atoms: C_8  and  C_9
REMARK    4  A    between atoms: N_11  and  C_12
REMARK                            x       y       z     vdW  Elec       q    Type
REMARK                         _______ _______ _______ _____ _____    ______ ____
ROOT
ATOM      1  C   UNL     1      16.646  16.172  22.016  0.00  0.00    +0.000 A 
ATOM      2  C   UNL     1      17.746  16.882  22.617  0.00  0.00    +0.000 A 
ATOM      3  C   UNL     1      18.898  16.158  23.088  0.00  0.00    +0.000 A 
ATOM      4  C   UNL     1      19.998  16.869  23.689  0.00  0.00    +0.000 A 
ATOM      5  C   UNL     1      19.944  18.302  23.817  0.00  0.00    +0.000 A 
ATOM      6  C   UNL     1      18.792  19.025  23.346  0.00  0.00    +0.000 A 
ATOM      7  C   UNL     1      17.692  18.315  22.746  0.00  0.00    +0.000 A 
ATOM      8  N   UNL     1      17.743  16.929  22.621  0.00  0.00    +0.000 NA
ATOM      9  C   UNL     1      21.151  16.146  24.160  0.00  0.00    +0.000 A 
ATOM     10  C   UNL     1      15.493  16.894  21.545  0.00  0.00    +0.000 A 
ENDROOT
BRANCH   6  11
ATOM     11  C   UNL     1      18.736  20.538  23.483  0.00  0.00    +0.000 C 
ATOM     12  O   UNL     1      19.250  21.276  22.585  0.00  0.00    +0.000 OA
ATOM     13  N   UNL     1      18.085  21.147  24.652  0.00  0.00    +0.000 N 
ATOM     14  H   UNL     1      18.048  22.163  24.743  0.00  0.00    +0.000 HD
BRANCH  13  15
ATOM     15  C   UNL     1      17.490  20.294  25.690  0.00  0.00    +0.000 C 
ATOM     16  C   UNL     1      16.258  20.976  26.262  0.00  0.00    +0.000 C 
ATOM     17  C   UNL     1      15.245  21.208  25.152  0.00  0.00    +0.000 C 
ATOM     18  C   UNL     1      14.847  19.873  24.543  0.00  0.00    +0.000 C 
ATOM     19  C   UNL     1      18.502  20.062  26.798  0.00  0.00    +0.000 C 
ENDBRANCH  13  15
ENDBRANCH   6  11
BRANCH   1  21
ATOM     20  C   UNL     1      15.570  14.047  21.401  0.00  0.00    +0.000 C 
ATOM     21  O   UNL     1      16.699  14.759  21.889  0.00  0.00    +0.000 OA
ENDBRANCH   1  21
TORSDOF 3
ENDMDL
MODEL 8
REMARK VINA RESULT:    -6.195     17.020     18.808
REMARK INTER + INTRA:          -8.061
REMARK INTER:                  -7.242
REMARK INTRA:                  -0.819
REMARK UNBOUND:                -0.779
REMARK  Name = 
REMARK  4 active torsions:
REMARK  status: ('A' for Active; 'I' for Inactive)
REMARK    1  A    between atoms: C_1  and  O_2
REMARK    2  A    between atoms: O_2  and  C_3
REMARK    3  A    between atoms: C_8  and  C_9
REMARK    4  A    between atoms: N_11  and  C_12
REMARK                            x       y       z     vdW  Elec       q    Type
REMARK                         _______ _______ _______ _____ _____    ______ ____
ROOT
ATOM      1  C   UNL     1      11.309   4.238  29.507  0.00  0.00    +0.000 A 
ATOM      2  C   UNL     1      11.923   3.365  28.540  0.00  0.00    +0.000 A 
ATOM      3  C   UNL     1      13.346   3.142  28.572  0.00  0.00    +0.000 A 
ATOM      4  C   UNL     1      13.960   2.270  27.605  0.00  0.00    +0.000 A 
ATOM      5  C   UNL     1      13.151   1.620  26.605  0.00  0.00    +0.000 A 
ATOM      6  C   UNL     1      11.729   1.844  26.573  0.00  0.00    +0.000 A 
ATOM      7  C   UNL     1      11.115   2.717  27.541  0.00  0.00    +0.000 A 
ATOM      8  N   UNL     1      11.897   3.345  28.507  0.00  0.00    +0.000 NA
ATOM      9  C   UNL     1      15.382   2.046  27.637  0.00  0.00    +0.000 A 
ATOM     10  C   UNL     1       9.887   4.461  29.475  0.00  0.00    +0.000 A 
ENDROOT
BRANCH   6  11
ATOM     11  C   UNL     1      10.876   1.159  25.518  0.00  0.00    +0.000 C 
ATOM     12  O   UNL     1      10.729   1.694  24.375  0.00  0.00    +0.000 OA
ATOM     13  N   UNL     1      10.222  -0.123  25.820  0.00  0.00    +0.000 N 
ATOM     14  H   UNL     1       9.649  -0.582  25.111  0.00  0.00    +0.000 HD
BRANCH  13  15
ATOM     15  C   UNL     1      10.392  -0.742  27.142  0.00  0.00    +0.000 C 
ATOM     16  C   UNL     1      10.514  -2.248  26.985  0.00  0.00    +0.000 C 
ATOM     17  C   UNL     1      11.717  -2.571  26.115  0.00  0.00    +0.000 C 
ATOM     18  C   UNL     1      12.977  -2.028  26.770  0.00  0.00    +0.000 C 
ATOM     19  C   UNL     1       9.189  -0.418  28.012  0.00  0.00    +0.000 C 
ENDBRANCH  13  15
ENDBRANCH   6  11
BRANCH   1  21
ATOM     20  C   UNL     1      11.832   4.672  31.872  0.00  0.00    +0.000 C 
ATOM     21  O   UNL     1      12.106   4.878  30.493  0.00  0.00    +0.000 OA
ENDBRANCH   1  21
TORSDOF 3
ENDMDL
MODEL 9
REMARK VINA RESULT:    -6.188     14.518     16.855
REMARK INTER + INTRA:          -8.052
REMARK INTER:                  -7.248
REMARK INTRA:                  -0.804
REMARK UNBOUND:                -0.779
REMARK  Name = 
REMARK  4 active torsions:
REMARK  status: ('A' for Active; 'I' for Inactive)
REMARK    1  A    between atoms: C_1  and  O_2
REMARK    2  A    between atoms: O_2  and  C_3
REMARK    3  A    between atoms: C_8  and  C_9
REMARK    4  A    between atoms: N_11  and  C_12
REMARK                            x       y       z     vdW  Elec       q    Type
REMARK                         _______ _______ _______ _____ _____    ______ ____
ROOT
ATOM      1  C   UNL     1      11.617   2.020  27.022  0.00  0.00    +0.000 A 
ATOM      2  C   UNL     1      12.541   2.782  27.823  0.00  0.00    +0.000 A 
ATOM      3  C   UNL     1      13.912   2.921  27.403  0.00  0.00    +0.000 A 
ATOM      4  C   UNL     1      14.836   3.682  28.204  0.00  0.00    +0.000 A 
ATOM      5  C   UNL     1      14.388   4.305  29.423  0.00  0.00    +0.000 A 
ATOM      6  C   UNL     1      13.018   4.165  29.842  0.00  0.00    +0.000 A 
ATOM      7  C   UNL     1      12.094   3.403  29.042  0.00  0.00    +0.000 A 
ATOM      8  N   UNL     1      12.526   2.802  27.863  0.00  0.00    +0.000 NA
ATOM      9  C   UNL     1      16.206   3.822  27.785  0.00  0.00    +0.000 A 
ATOM     10  C   UNL     1      10.247   1.880  27.441  0.00  0.00    +0.000 A 
ENDROOT
BRANCH   6  11
ATOM     11  C   UNL     1      12.546   4.822  31.129  0.00  0.00    +0.000 C 
ATOM     12  O   UNL     1      12.635   4.196  32.232  0.00  0.00    +0.000 OA
ATOM     13  N   UNL     1      11.988   6.182  31.099  0.00  0.00    +0.000 N 
ATOM     14  H   UNL     1      11.672   6.622  31.964  0.00  0.00    +0.000 HD
BRANCH  13  15
ATOM     15  C   UNL     1      11.885   6.906  29.824  0.00  0.00    +0.000 C 
ATOM     16  C   UNL     1      12.188   8.378  30.052  0.00  0.00    +0.000 C 
ATOM     17  C   UNL     1      13.595   8.526  30.608  0.00  0.00    +0.000 C 
ATOM     18  C   UNL     1      14.595   7.952  29.617  0.00  0.00    +0.000 C 
ATOM     19  C   UNL     1      10.479   6.758  29.269  0.00  0.00    +0.000 C 
ENDBRANCH  13  15
ENDBRANCH   6  11
BRANCH   1  21
ATOM     20  C   UNL     1      11.109   0.954  24.864  0.00  0.00    +0.000 C 
ATOM     21  O   UNL     1      12.058   1.407  25.820  0.00  0.00    +0.000 OA
ENDBRANCH   1  21
TORSDOF 3
ENDMDL
MODEL 10
REMARK VINA RESULT:    -5.975     16.977     19.431
REMARK INTER + INTRA:          -7.802
REMARK INTER:                  -7.098
REMARK INTRA:                  -0.704
REMARK UNBOUND:                -0.779
REMARK  Name = 
REMARK  4 active torsions:
REMARK  status: ('A' for Active; 'I' for Inactive)
REMARK    1  A    between atoms: C_1  and  O_2
REMARK    2  A    between atoms: O_2  and  C_3
REMARK    3  A    between atoms: C_8  and  C_9
REMARK    4  A    between atoms: N_11  and  C_12
REMARK                            x       y       z     vdW  Elec       q    Type
REMARK                         _______ _______ _______ _____ _____    ______ ____
ROOT
ATOM      1  C   UNL     1      15.190   1.455  27.396  0.00  0.00    +0.000 A 
ATOM      2  C   UNL     1      13.809   1.859  27.324  0.00  0.00    +0.000 A 
ATOM      3  C   UNL     1      13.331   2.938  28.150  0.00  0.00    +0.000 A 
ATOM      4  C   UNL     1      11.951   3.342  28.079  0.00  0.00    +0.000 A 
ATOM      5  C   UNL     1      11.049   2.668  27.181  0.00  0.00    +0.000 A 
ATOM      6  C   UNL     1      11.527   1.589  26.356  0.00  0.00    +0.000 A 
ATOM      7  C   UNL     1      12.907   1.184  26.427  0.00  0.00    +0.000 A 
ATOM      8  N   UNL     1      13.780   1.836  27.295  0.00  0.00    +0.000 NA
ATOM      9  C   UNL     1      11.473   4.421  28.904  0.00  0.00    +0.000 A 
ATOM     10  C   UNL     1      15.668   0.376  26.571  0.00  0.00    +0.000 A 
ENDROOT
BRANCH   6  11
ATOM     11  C   UNL     1      10.575   0.877  25.409  0.00  0.00    +0.000 C 
ATOM     12  O   UNL     1      10.324   1.374  24.267  0.00  0.00    +0.000 OA
ATOM     13  N   UNL     1       9.943  -0.388  25.815  0.00  0.00    +0.000 N 
ATOM     14  H   UNL     1       9.304  -0.865  25.178  0.00  0.00    +0.000 HD
BRANCH  13  15
ATOM     15  C   UNL     1      10.233  -0.964  27.135  0.00  0.00    +0.000 C 
ATOM     16  C   UNL     1      10.354  -2.474  27.015  0.00  0.00    +0.000 C 
ATOM     17  C   UNL     1      11.481  -2.816  26.053  0.00  0.00    +0.000 C 
ATOM     18  C   UNL     1      12.788  -2.244  26.580  0.00  0.00    +0.000 C 
ATOM     19  C   UNL     1       9.106  -0.621  28.095  0.00  0.00    +0.000 C 
ENDBRANCH  13  15
ENDBRANCH   6  11
BRANCH   1  21
ATOM     20  C   UNL     1      17.408   1.643  28.442  0.00  0.00    +0.000 C 
ATOM     21  O   UNL     1      16.079   2.120  28.280  0.00  0.00    +0.000 OA
ENDBRANCH   1  21
TORSDOF 3
ENDMDL
