REMARK  Name = 
REMARK  1 active torsions:
REMARK  status: ('A' for Active; 'I' for Inactive)
REMARK    1  A    between atoms: C_4  and  C_5
REMARK                            x       y       z     vdW  Elec       q    Type
REMARK                         _______ _______ _______ _____ _____    ______ ____
ROOT
ATOM      1  O   UNL     1       0.994  -0.023  -0.097  0.00  0.00    +0.000 OA
ATOM      2  C   UNL     1       2.265  -0.023  -0.097  0.00  0.00    +0.000 A 
ATOM      3  C   UNL     1       2.985  -0.121  -1.340  0.00  0.00    +0.000 A 
ATOM      4  C   UNL     1       2.265  -0.219  -2.584  0.00  0.00    +0.000 A 
ATOM      5  O   UNL     1       0.919  -0.219  -2.584  0.00  0.00    +0.000 OA
ATOM      6  C   UNL     1       0.247  -0.310  -3.745  0.00  0.00    +0.000 A 
ATOM      7  C   UNL     1      -1.194  -0.702  -8.719  0.00  0.00    +0.000 A 
ATOM      8  C   UNL     1      -1.914  -0.604  -7.476  0.00  0.00    +0.000 A 
ATOM      9  C   UNL     1      -1.194  -0.506  -6.232  0.00  0.00    +0.000 A 
ATOM     10  C   UNL     1      -1.914  -0.408  -4.989  0.00  0.00    +0.000 A 
ATOM     11  O   UNL     1      -3.259  -0.408  -4.989  0.00  0.00    +0.000 OA
ATOM     12  C   UNL     1      -3.932  -0.500  -6.150  0.00  0.00    +0.000 A 
ATOM     13  C   UNL     1      -1.914  -0.213  -2.502  0.00  0.00    +0.000 A 
ATOM     14  C   UNL     1      -1.194  -0.310  -3.745  0.00  0.00    +0.000 A 
ENDROOT
BRANCH   4  15
ATOM     15  C   UNL     1       3.025  -0.322  -3.896  0.00  0.00    +0.000 A 
ATOM     16  C   UNL     1       4.465  -0.322  -3.896  0.00  0.00    +0.000 A 
ATOM     17  C   UNL     1       5.185  -0.224  -2.653  0.00  0.00    +0.000 A 
ATOM     18  C   UNL     1       6.625  -0.224  -2.653  0.00  0.00    +0.000 A 
ATOM     19  C   UNL     1       7.345  -0.126  -1.409  0.00  0.00    +0.000 A 
ATOM     20  C   UNL     1       2.305  -0.420  -5.140  0.00  0.00    +0.000 A 
ENDBRANCH   4  15
TORSDOF 1
