REMARK  Name = 
REMARK  4 active torsions:
REMARK  status: ('A' for Active; 'I' for Inactive)
REMARK    1  A    between atoms: N_6  and  C_7
REMARK    2  A    between atoms: C_16  and  C_17
REMARK    3  A    between atoms: C_20  and  S_21
REMARK    4  A    between atoms: S_21  and  C_22
REMARK                            x       y       z     vdW  Elec       q    Type
REMARK                         _______ _______ _______ _____ _____    ______ ____
ROOT
ATOM      1  O   UNL     1       1.008   0.094   0.032  0.00  0.00    +0.000 OA
ATOM      2  C   UNL     1       2.279   0.094   0.032  0.00  0.00    +0.000 C 
ATOM      3  N   UNL     1       3.014  -1.178   0.077  0.00  0.00    +0.000 N 
ATOM      4  C   UNL     1       2.279  -2.450   0.121  0.00  0.00    +0.000 C 
ATOM      5  O   UNL     1       2.915  -3.550   0.159  0.00  0.00    +0.000 OA
ATOM      6  N   UNL     1       0.809  -2.450   0.121  0.00  0.00    +0.000 N 
ATOM      7  C   UNL     1       0.074  -3.723   0.165  0.00  0.00    +0.000 C 
ATOM      8  O   UNL     1      -1.197  -3.723   0.165  0.00  0.00    +0.000 OA
ATOM      9  C   UNL     1       3.039   1.410  -0.014  0.00  0.00    +0.000 C 
ATOM     10  C   UNL     1       2.359   2.587  -0.055  0.00  0.00    +0.000 C 
ATOM     11  H   UNL     1       4.034  -1.178   0.077  0.00  0.00    +0.000 HD
ENDROOT
BRANCH   6  12
ATOM     12  C   UNL     1       0.074  -1.178   0.077  0.00  0.00    +0.000 A 
ATOM     13  C   UNL     1       0.794   0.069   0.033  0.00  0.00    +0.000 A 
ATOM     14  C   UNL     1       2.235   0.069   0.033  0.00  0.00    +0.000 A 
ATOM     15  C   UNL     1       2.955   1.315  -0.010  0.00  0.00    +0.000 A 
ATOM     16  C   UNL     1       4.395   1.315  -0.010  0.00  0.00    +0.000 A 
ATOM     17  C   UNL     1      -1.366  -1.178   0.077  0.00  0.00    +0.000 A 
ENDBRANCH   6  12
BRANCH  10  18
ATOM     18  C   UNL     1       3.119   3.903  -0.101  0.00  0.00    +0.000 A 
ATOM     19  C   UNL     1       4.559   3.903  -0.101  0.00  0.00    +0.000 A 
ATOM     20  C   UNL     1       5.279   2.656  -0.057  0.00  0.00    +0.000 A 
ATOM     21  C   UNL     1       6.720   2.656  -0.057  0.00  0.00    +0.000 A 
ATOM     22  O   UNL     1       2.446   5.067  -0.141  0.00  0.00    +0.000 OA
BRANCH  21  23
ATOM     23  S   UNL     1       7.625   4.223  -0.112  0.00  0.00    +0.000 S 
BRANCH  23  24
ATOM     24  C   UNL     1       9.404   3.892  -0.100  0.00  0.00    +0.000 A 
ATOM     25  C   UNL     1      10.340   4.986  -0.139  0.00  0.00    +0.000 A 
ATOM     26  C   UNL     1       9.860   6.343  -0.186  0.00  0.00    +0.000 A 
ATOM     27  C   UNL     1      10.796   7.437  -0.224  0.00  0.00    +0.000 A 
ATOM     28  C   UNL     1      10.316   8.794  -0.272  0.00  0.00    +0.000 A 
ATOM     29  C   UNL     1       9.884   2.535  -0.053  0.00  0.00    +0.000 A 
ENDBRANCH  23  24
ENDBRANCH  21  23
ENDBRANCH  10  18
TORSDOF 4
