REMARK  Name = 
REMARK  9 active torsions:
REMARK  status: ('A' for Active; 'I' for Inactive)
REMARK    1  A    between atoms: C_1  and  C_2
REMARK    2  A    between atoms: C_2  and  O_3
REMARK    3  A    between atoms: O_3  and  C_4
REMARK    4  A    between atoms: C_4  and  C_6
REMARK    5  A    between atoms: C_7  and  C_8
REMARK    6  A    between atoms: C_8  and  C_9
REMARK    7  A    between atoms: C_13  and  O_14
REMARK    8  A    between atoms: O_14  and  C_15
REMARK    9  A    between atoms: C_21  and  O_22
REMARK                            x       y       z     vdW  Elec       q    Type
REMARK                         _______ _______ _______ _____ _____    ______ ____
ROOT
ATOM      1  C   UNL     1       2.959   0.550  -3.953  0.00  0.00    +0.000 A 
ATOM      2  C   UNL     1       4.375   0.502  -4.212  0.00  0.00    +0.000 A 
ATOM      3  N   UNL     1       4.839   0.261  -5.503  0.00  0.00    +0.000 N 
ATOM      4  C   UNL     1       3.934   0.067  -6.544  0.00  0.00    +0.000 A 
ATOM      5  C   UNL     1       1.606  -0.785 -11.107  0.00  0.00    +0.000 A 
ATOM      6  C   UNL     1       1.126  -0.536  -9.772  0.00  0.00    +0.000 A 
ATOM      7  C   UNL     1       2.062  -0.335  -8.696  0.00  0.00    +0.000 A 
ATOM      8  C   UNL     1       1.582  -0.086  -7.361  0.00  0.00    +0.000 A 
ATOM      9  C   UNL     1       0.166  -0.038  -7.102  0.00  0.00    +0.000 A 
ATOM     10  C   UNL     1      -0.314   0.211  -5.767  0.00  0.00    +0.000 A 
ATOM     11  C   UNL     1      -1.730   0.260  -5.509  0.00  0.00    +0.000 A 
ATOM     12  C   UNL     1       2.038   0.364  -4.950  0.00  0.00    +0.000 A 
ATOM     13  C   UNL     1       2.518   0.115  -6.285  0.00  0.00    +0.000 A 
ATOM     14  H   UNL     1       5.842   0.227  -5.686  0.00  0.00    +0.000 HD
ENDROOT
BRANCH   1  15
ATOM     15  C   UNL     1       2.452   0.813  -2.545  0.00  0.00    +0.000 C 
ATOM     16  O   UNL     1       3.278   0.990  -1.595  0.00  0.00    +0.000 OA
BRANCH  15  17
ATOM     17  O   UNL     1       1.056   0.860  -2.289  0.00  0.00    +0.000 OA
BRANCH  17  19
ATOM     18  C   UNL     1       1.089   0.017  -0.041  0.00  0.00    +0.000 C 
ATOM     19  C   UNL     1       0.583   1.106  -0.973  0.00  0.00    +0.000 C 
ENDBRANCH  17  19
ENDBRANCH  15  17
ENDBRANCH   1  15
BRANCH   7  20
ATOM     20  O   UNL     1       3.458  -0.383  -8.951  0.00  0.00    +0.000 OA
ATOM     21  H   UNL     1       3.792  -0.556  -9.878  0.00  0.00    +0.000 HD
ENDBRANCH   7  20
BRANCH   2  22
ATOM     22  C   UNL     1       5.362   0.714  -3.076  0.00  0.00    +0.000 C 
BRANCH  22  23
ATOM     23  C   UNL     1       6.236  -0.521  -2.928  0.00  0.00    +0.000 A 
ATOM     24  C   UNL     1       5.636  -1.797  -2.634  0.00  0.00    +0.000 A 
ATOM     25  C   UNL     1       4.208  -1.903  -2.480  0.00  0.00    +0.000 A 
ATOM     26  C   UNL     1       3.608  -3.178  -2.186  0.00  0.00    +0.000 A 
ATOM     27  C   UNL     1       2.180  -3.284  -2.032  0.00  0.00    +0.000 A 
ATOM     28  C   UNL     1       7.664  -0.416  -3.081  0.00  0.00    +0.000 A 
BRANCH  27  29
ATOM     29  O   UNL     1       1.364  -2.131  -2.171  0.00  0.00    +0.000 OA
ATOM     30  C   UNL     1      -0.044  -2.235  -2.019  0.00  0.00    +0.000 C 
ENDBRANCH  27  29
ENDBRANCH  22  23
ENDBRANCH   2  22
TORSDOF 7
