REMARK  Name = 
REMARK  4 active torsions:
REMARK  status: ('A' for Active; 'I' for Inactive)
REMARK    1  A    between atoms: C_1  and  O_2
REMARK    2  A    between atoms: O_2  and  C_3
REMARK    3  A    between atoms: C_6  and  N_7
REMARK    4  A    between atoms: C_13  and  C_14
REMARK                            x       y       z     vdW  Elec       q    Type
REMARK                         _______ _______ _______ _____ _____    ______ ____
ROOT
ATOM      1  N   UNL     1      -1.813   1.682  -5.747  0.00  0.00    +0.000 NA
ATOM      2  C   UNL     1      -2.131   0.431  -5.493  0.00  0.00    +0.000 C 
ATOM      3  N   UNL     1      -2.976  -0.318  -6.434  0.00  0.00    +0.000 N 
ATOM      4  C   UNL     1      -3.466   0.331  -7.658  0.00  0.00    +0.000 C 
ATOM      5  O   UNL     1      -4.197  -0.317  -8.472  0.00  0.00    +0.000 OA
ATOM      6  C   UNL     1      -3.099   1.776  -7.952  0.00  0.00    +0.000 C 
ATOM      7  C   UNL     1      -3.552   2.377  -9.085  0.00  0.00    +0.000 C 
ATOM      8  S   UNL     1      -1.527  -0.368  -3.985  0.00  0.00    +0.000 S 
ATOM      9  H   UNL     1      -3.222  -1.288  -6.237  0.00  0.00    +0.000 HD
ENDROOT
BRANCH   1  13
ATOM     10  C   UNL     1       0.820   1.894  -1.484  0.00  0.00    +0.000 A 
ATOM     11  C   UNL     1       0.340   2.530  -2.684  0.00  0.00    +0.000 A 
ATOM     12  C   UNL     1      -0.488   1.796  -3.606  0.00  0.00    +0.000 A 
ATOM     13  C   UNL     1      -0.968   2.432  -4.806  0.00  0.00    +0.000 A 
ATOM     14  C   UNL     1      -0.620   3.801  -5.084  0.00  0.00    +0.000 A 
ATOM     15  C   UNL     1       1.648   2.628  -0.562  0.00  0.00    +0.000 A 
BRANCH  10  17
ATOM     16  C   UNL     1       0.951  -0.083  -0.027  0.00  0.00    +0.000 C 
ATOM     17  O   UNL     1       0.477   0.544  -1.210  0.00  0.00    +0.000 OA
ENDBRANCH  10  17
ENDBRANCH   1  13
BRANCH   7  18
ATOM     18  C   UNL     1      -4.426   1.602 -10.058  0.00  0.00    +0.000 A 
ATOM     19  C   UNL     1      -4.774   0.233  -9.780  0.00  0.00    +0.000 A 
ATOM     20  C   UNL     1      -4.294  -0.403  -8.580  0.00  0.00    +0.000 A 
ATOM     21  C   UNL     1      -4.642  -1.773  -8.302  0.00  0.00    +0.000 A 
ATOM     22  O   UNL     1      -4.875   2.196 -11.179  0.00  0.00    +0.000 OA
ENDBRANCH   7  18
TORSDOF 3
