REMARK  Name = 
REMARK  5 active torsions:
REMARK  status: ('A' for Active; 'I' for Inactive)
REMARK    1  A    between atoms: O_1  and  C_2
REMARK    2  A    between atoms: C_6  and  C_7
REMARK    3  A    between atoms: N_8  and  C_9
REMARK    4  A    between atoms: C_14  and  C_15
REMARK    5  A    between atoms: C_24  and  O_25
REMARK                            x       y       z     vdW  Elec       q    Type
REMARK                         _______ _______ _______ _____ _____    ______ ____
ROOT
ATOM      1  C   UNL     1       0.291   4.878   3.882  0.00  0.00    +0.000 A 
ATOM      2  C   UNL     1       1.011   5.849   4.665  0.00  0.00    +0.000 A 
ATOM      3  C   UNL     1       0.291   6.820   5.448  0.00  0.00    +0.000 A 
ATOM      4  C   UNL     1       1.011   7.790   6.231  0.00  0.00    +0.000 A 
ATOM      5  N   UNL     1       2.404   7.790   6.231  0.00  0.00    +0.000 NA
ATOM      6  C   UNL     1       3.101   8.729   6.989  0.00  0.00    +0.000 A 
ATOM      7  N   UNL     1       4.493   8.729   6.989  0.00  0.00    +0.000 N 
ATOM      8  C   UNL     1       0.291   8.761   7.014  0.00  0.00    +0.000 A 
ATOM      9  C   UNL     1       1.011   3.907   3.099  0.00  0.00    +0.000 A 
ATOM     10  H   UNL     1       5.003   9.417   7.543  0.00  0.00    +0.000 HD
ENDROOT
BRANCH   6  11
ATOM     11  C   UNL     1       2.341   9.754   7.815  0.00  0.00    +0.000 A 
ATOM     12  C   UNL     1       0.900   9.754   7.815  0.00  0.00    +0.000 A 
ATOM     13  C   UNL     1       0.180   8.783   7.032  0.00  0.00    +0.000 A 
ATOM     14  C   UNL     1      -1.260   8.783   7.032  0.00  0.00    +0.000 A 
ATOM     15  C   UNL     1      -1.980   7.812   6.249  0.00  0.00    +0.000 A 
ATOM     16  C   UNL     1       3.061  10.725   8.598  0.00  0.00    +0.000 A 
ENDBRANCH   6  11
BRANCH   1  18
ATOM     17  C   UNL     1      -1.837   3.991   3.167  0.00  0.00    +0.000 C 
ATOM     18  N   UNL     1      -1.179   4.878   3.882  0.00  0.00    +0.000 NA
BRANCH  17  23
ATOM     19  C   UNL     1       0.364   1.025   0.774  0.00  0.00    +0.000 A 
ATOM     20  C   UNL     1      -1.077   1.025   0.774  0.00  0.00    +0.000 A 
ATOM     21 BR   UNL     1      -2.057  -0.296  -0.291  0.00  0.00    +0.000 Br
ATOM     22  C   UNL     1      -1.797   1.996   1.557  0.00  0.00    +0.000 A 
ATOM     23  C   UNL     1      -1.077   2.966   2.340  0.00  0.00    +0.000 A 
ATOM     24  C   UNL     1       0.364   2.966   2.340  0.00  0.00    +0.000 A 
ATOM     25  C   UNL     1       1.084   1.996   1.557  0.00  0.00    +0.000 A 
ATOM     26 BR   UNL     1       3.044   1.996   1.557  0.00  0.00    +0.000 Br
BRANCH  19  27
ATOM     27  O   UNL     1       1.074   0.068   0.002  0.00  0.00    +0.000 OA
ATOM     28  H   UNL     1       2.074   0.068   0.002  0.00  0.00    +0.000 HD
ENDBRANCH  19  27
BRANCH  24  29
ATOM     29  O   UNL     1       1.074   3.924   3.112  0.00  0.00    +0.000 OA
ATOM     30  H   UNL     1       2.074   3.924   3.112  0.00  0.00    +0.000 HD
ENDBRANCH  24  29
ENDBRANCH  17  23
ENDBRANCH   1  18
TORSDOF 5
