REMARK  Name = 
REMARK  4 active torsions:
REMARK  status: ('A' for Active; 'I' for Inactive)
REMARK    1  A    between atoms: C_1  and  C_2
REMARK    2  A    between atoms: C_5  and  C_6
REMARK    3  A    between atoms: C_7  and  N_8
REMARK    4  A    between atoms: C_20  and  N_21
REMARK                            x       y       z     vdW  Elec       q    Type
REMARK                         _______ _______ _______ _____ _____    ______ ____
ROOT
ATOM      1  N   UNL     1       1.932  -5.652  -3.564  0.00  0.00    +0.000 N 
ATOM      2  C   UNL     1       1.467  -6.952  -3.378  0.00  0.00    +0.000 A 
ATOM      3  N   UNL     1       1.804  -7.949  -4.290  0.00  0.00    +0.000 NA
ATOM      4  C   UNL     1       1.340  -9.249  -4.104  0.00  0.00    +0.000 A 
ATOM      5  O   UNL     1       0.609  -9.526  -3.102  0.00  0.00    +0.000 OA
ATOM      6  N   UNL     1       1.676 -10.247  -5.016  0.00  0.00    +0.000 N 
ATOM      7  C   UNL     1       2.477  -9.944  -6.115  0.00  0.00    +0.000 A 
ATOM      8  O   UNL     1       2.900  -8.758  -6.285  0.00  0.00    +0.000 OA
ATOM      9  C   UNL     1       0.593  -7.283  -2.179  0.00  0.00    +0.000 A 
ATOM     10  C   UNL     1       0.246  -6.252  -1.236  0.00  0.00    +0.000 A 
ATOM     11  C   UNL     1       0.726  -4.908  -1.428  0.00  0.00    +0.000 A 
ATOM     12  C   UNL     1       1.554  -4.595  -2.564  0.00  0.00    +0.000 A 
ATOM     13  C   UNL     1       1.902  -5.626  -3.508  0.00  0.00    +0.000 A 
ATOM     14  C   UNL     1       1.421  -6.970  -3.315  0.00  0.00    +0.000 A 
ATOM     15  C   UNL     1       0.593  -7.283  -2.179  0.00  0.00    +0.000 A 
ATOM     16  C   UNL     1       2.732  -5.350  -4.663  0.00  0.00    +0.000 A 
ATOM     17  H   UNL     1       1.336 -11.198  -4.880  0.00  0.00    +0.000 HD
ENDROOT
BRANCH   1  24
ATOM     18  C   UNL     1       1.039  -0.088   0.026  0.00  0.00    +0.000 C 
ATOM     19  C   UNL     1       0.533  -1.507   0.229  0.00  0.00    +0.000 A 
ATOM     20  C   UNL     1       0.881  -2.538  -0.714  0.00  0.00    +0.000 A 
ATOM     21  C   UNL     1       1.709  -2.225  -1.851  0.00  0.00    +0.000 A 
ATOM     22  C   UNL     1       2.057  -3.256  -2.794  0.00  0.00    +0.000 A 
ATOM     23  C   UNL     1       2.930  -2.926  -3.993  0.00  0.00    +0.000 C 
ATOM     24  C   UNL     1       1.577  -4.600  -2.601  0.00  0.00    +0.000 A 
ATOM     25  C   UNL     1      -0.295  -1.820   1.365  0.00  0.00    +0.000 A 
ENDBRANCH   1  24
BRANCH  13  26
ATOM     26  N   UNL     1       2.747  -5.306  -4.667  0.00  0.00    +0.000 N 
ATOM     27  O   UNL     1       3.043  -6.184  -5.470  0.00  0.00    +0.000 OA
ATOM     28  O   UNL     1       3.203  -4.027  -4.850  0.00  0.00    +0.000 OA
ENDBRANCH  13  26
TORSDOF 2
