REMARK  Name = 
REMARK  4 active torsions:
REMARK  status: ('A' for Active; 'I' for Inactive)
REMARK    1  A    between atoms: C_1  and  C_2
REMARK    2  A    between atoms: C_10  and  C_11
REMARK    3  A    between atoms: C_14  and  C_15
REMARK    4  A    between atoms: C_18  and  C_19
REMARK                            x       y       z     vdW  Elec       q    Type
REMARK                         _______ _______ _______ _____ _____    ______ ____
ROOT
ATOM      1  C   UNL     1       4.677   4.075   3.530  0.00  0.00    +0.000 A 
ATOM      2  C   UNL     1       4.329   2.930   4.330  0.00  0.00    +0.000 A 
ATOM      3  N   UNL     1       3.529   1.924   3.795  0.00  0.00    +0.000 N 
ATOM      4  C   UNL     1       3.173   0.754   4.612  0.00  0.00    +0.000 C 
ATOM      5  C   UNL     1       2.300  -0.344   4.028  0.00  0.00    +0.000 C 
ATOM      6  O   UNL     1       3.597   0.661   5.806  0.00  0.00    +0.000 OA
ATOM      7  N   UNL     1       3.080   2.022   2.530  0.00  0.00    +0.000 NA
ATOM      8  C   UNL     1       5.505   5.116   4.083  0.00  0.00    +0.000 A 
ENDROOT
BRANCH   1  18
ATOM      9  C   UNL     1       0.905   0.007   0.029  0.00  0.00    +0.000 C 
ATOM     10  C   UNL     1       0.398   0.118  -1.400  0.00  0.00    +0.000 C 
ATOM     11  O   UNL     1      -0.333  -0.800  -1.888  0.00  0.00    +0.000 OA
ATOM     12  N   UNL     1       0.753   1.288  -2.217  0.00  0.00    +0.000 N 
ATOM     13  C   UNL     1       1.598   2.350  -1.652  0.00  0.00    +0.000 C 
ATOM     14  N   UNL     1       2.037   2.253  -0.415  0.00  0.00    +0.000 NA
ATOM     15  C   UNL     1       2.882   3.315   0.150  0.00  0.00    +0.000 C 
ATOM     16  O   UNL     1       3.189   4.326  -0.556  0.00  0.00    +0.000 OA
ATOM     17  C   UNL     1       3.388   3.204   1.578  0.00  0.00    +0.000 C 
ATOM     18  C   UNL     1       4.171   4.187   2.101  0.00  0.00    +0.000 C 
ATOM     19  S   UNL     1       2.035   3.790  -2.658  0.00  0.00    +0.000 S 
ATOM     20  H   UNL     1       0.413   1.362  -3.176  0.00  0.00    +0.000 HD
ENDBRANCH   1  18
BRANCH   8  21
ATOM     21  C   UNL     1       5.872   6.325   3.239  0.00  0.00    +0.000 A 
ATOM     22  C   UNL     1       6.700   7.365   3.792  0.00  0.00    +0.000 A 
ATOM     23  C   UNL     1       7.180   7.260   5.146  0.00  0.00    +0.000 A 
ATOM     24  C   UNL     1       8.008   8.300   5.699  0.00  0.00    +0.000 A 
ATOM     25  C   UNL     1       8.489   8.195   7.053  0.00  0.00    +0.000 A 
ATOM     26  C   UNL     1       5.392   6.430   1.885  0.00  0.00    +0.000 A 
ENDBRANCH   8  21
TORSDOF 2
