REMARK  Name = 
REMARK  4 active torsions:
REMARK  status: ('A' for Active; 'I' for Inactive)
REMARK    1  A    between atoms: C_1  and  O_2
REMARK    2  A    between atoms: O_2  and  C_3
REMARK    3  A    between atoms: C_7  and  N_8
REMARK    4  A    between atoms: C_10  and  C_11
REMARK                            x       y       z     vdW  Elec       q    Type
REMARK                         _______ _______ _______ _____ _____    ______ ____
ROOT
ATOM      1  N   UNL     1      -2.149  -5.284   0.970  0.00  0.00    +0.000 N 
ATOM      2  N   UNL     1      -2.922  -5.936   1.857  0.00  0.00    +0.000 NA
ATOM      3  C   UNL     1      -3.259  -5.330   3.065  0.00  0.00    +0.000 A 
ATOM      4  C   UNL     1      -4.087  -6.029   4.014  0.00  0.00    +0.000 A 
ATOM      5 CL   UNL     1      -4.680  -7.665   3.643  0.00  0.00    +0.000 Cl
ATOM      6  C   UNL     1      -4.435  -5.403   5.264  0.00  0.00    +0.000 A 
ATOM      7  C   UNL     1      -1.685  -4.003   1.260  0.00  0.00    +0.000 A 
ATOM      8  O   UNL     1      -0.954  -3.387   0.423  0.00  0.00    +0.000 OA
ENDROOT
BRANCH   1  13
ATOM      9  C   UNL     1       0.822  -1.878  -1.604  0.00  0.00    +0.000 A 
ATOM     10  C   UNL     1       0.342  -3.202  -1.904  0.00  0.00    +0.000 A 
ATOM     11  C   UNL     1      -0.486  -3.900  -0.954  0.00  0.00    +0.000 A 
ATOM     12  C   UNL     1      -0.966  -5.224  -1.255  0.00  0.00    +0.000 A 
ATOM     13  C   UNL     1      -1.794  -5.923  -0.305  0.00  0.00    +0.000 A 
ATOM     14  C   UNL     1       1.650  -1.180  -2.553  0.00  0.00    +0.000 A 
BRANCH   9  16
ATOM     15  C   UNL     1       0.953   0.045  -0.076  0.00  0.00    +0.000 C 
ATOM     16  O   UNL     1       0.479  -1.261  -0.372  0.00  0.00    +0.000 OA
ENDBRANCH   9  16
ENDBRANCH   1  13
BRANCH   3  17
ATOM     17  C   UNL     1      -2.752  -3.933   3.382  0.00  0.00    +0.000 C 
ATOM     18  N   UNL     1      -2.332  -2.773   3.645  0.00  0.00    +0.000 NA
ENDBRANCH   3  17
TORSDOF 3
