REMARK  Name = 
REMARK  5 active torsions:
REMARK  status: ('A' for Active; 'I' for Inactive)
REMARK    1  A    between atoms: N_3  and  C_4
REMARK    2  A    between atoms: C_7  and  N_8
REMARK    3  A    between atoms: N_13  and  C_14
REMARK    4  A    between atoms: C_17  and  O_18
REMARK    5  A    between atoms: O_18  and  C_19
REMARK                            x       y       z     vdW  Elec       q    Type
REMARK                         _______ _______ _______ _____ _____    ______ ____
ROOT
ATOM      1  O   UNL     1       1.034   0.050  -0.080  0.00  0.00    +0.000 OA
ATOM      2  C   UNL     1       2.305   0.050  -0.080  0.00  0.00    +0.000 C 
ATOM      3  N   UNL     1       3.040   0.875  -1.049  0.00  0.00    +0.000 N 
ATOM      4  N   UNL     1       3.040  -0.775   0.890  0.00  0.00    +0.000 N 
ATOM      5  H   UNL     1       2.530   1.448  -1.722  0.00  0.00    +0.000 HD
ATOM      6  H   UNL     1       4.060  -0.775   0.890  0.00  0.00    +0.000 HD
ENDROOT
BRANCH   4   7
ATOM      7  C   UNL     1       2.305  -1.601   1.859  0.00  0.00    +0.000 A 
ATOM      8  C   UNL     1       0.865  -1.601   1.859  0.00  0.00    +0.000 A 
ATOM      9  C   UNL     1       0.144  -0.792   0.909  0.00  0.00    +0.000 A 
ATOM     10  C   UNL     1      -1.296  -0.792   0.909  0.00  0.00    +0.000 A 
ATOM     11  C   UNL     1      -2.016  -1.601   1.859  0.00  0.00    +0.000 A 
ATOM     12 CL   UNL     1      -3.796  -1.601   1.859  0.00  0.00    +0.000 Cl
ATOM     13  C   UNL     1       3.025  -2.409   2.809  0.00  0.00    +0.000 A 
BRANCH  10  14
ATOM     14  O   UNL     1      -2.006   0.005  -0.027  0.00  0.00    +0.000 OA
BRANCH  14  15
ATOM     15  C   UNL     1      -1.296   0.802  -0.964  0.00  0.00    +0.000 C 
ATOM     16  F   UNL     1      -0.531   1.675  -0.313  0.00  0.00    +0.000 F 
ATOM     17  F   UNL     1      -0.531   0.021  -1.721  0.00  0.00    +0.000 F 
ENDBRANCH  14  15
ENDBRANCH  10  14
ENDBRANCH   4   7
BRANCH   3  18
ATOM     18  C   UNL     1       4.510   0.875  -1.049  0.00  0.00    +0.000 A 
ATOM     19  C   UNL     1       5.230   0.067  -0.099  0.00  0.00    +0.000 A 
ATOM     20  C   UNL     1       4.510  -0.742   0.850  0.00  0.00    +0.000 A 
ATOM     21  C   UNL     1       5.230  -1.550   1.800  0.00  0.00    +0.000 A 
ATOM     22  C   UNL     1       6.670  -1.550   1.800  0.00  0.00    +0.000 A 
ATOM     23  C   UNL     1       5.230   1.683  -1.999  0.00  0.00    +0.000 A 
BRANCH  21  24
ATOM     24  N   UNL     1       4.495  -2.376   2.769  0.00  0.00    +0.000 N 
ATOM     25  O   UNL     1       5.108  -3.064   3.578  0.00  0.00    +0.000 OA
ATOM     26  O   UNL     1       3.125  -2.376   2.769  0.00  0.00    +0.000 OA
ENDBRANCH  21  24
ENDBRANCH   3  18
TORSDOF 5
