REMARK  Name = 
REMARK  7 active torsions:
REMARK  status: ('A' for Active; 'I' for Inactive)
REMARK    1  A    between atoms: C_1  and  C_2
REMARK    2  A    between atoms: C_2  and  O_3
REMARK    3  A    between atoms: O_3  and  C_4
REMARK    4  A    between atoms: C_7  and  C_8
REMARK    5  A    between atoms: N_10  and  C_11
REMARK    6  A    between atoms: C_13  and  C_14
REMARK    7  A    between atoms: C_28  and  N_29
REMARK                            x       y       z     vdW  Elec       q    Type
REMARK                         _______ _______ _______ _____ _____    ______ ____
ROOT
ATOM      1  C   UNL     1      -0.454  -1.184  -5.583  0.00  0.00    +0.000 A 
ATOM      2  C   UNL     1       0.482  -0.735  -4.585  0.00  0.00    +0.000 A 
ATOM      3  C   UNL     1       1.898  -0.843  -4.825  0.00  0.00    +0.000 A 
ATOM      4  C   UNL     1       2.378  -1.400  -6.063  0.00  0.00    +0.000 A 
ATOM      5  C   UNL     1       1.443  -1.849  -7.062  0.00  0.00    +0.000 A 
ATOM      6  C   UNL     1      -1.869  -1.076  -5.343  0.00  0.00    +0.000 A 
ATOM      7 CL   UNL     1      -3.026  -1.631  -6.577  0.00  0.00    +0.000 Cl
ENDROOT
BRANCH   3   8
ATOM      8  C   UNL     1       2.886  -0.368  -3.772  0.00  0.00    +0.000 A 
ATOM      9  N   UNL     1       2.422   0.171  -2.574  0.00  0.00    +0.000 NA
ATOM     10  C   UNL     1       3.327   0.605  -1.609  0.00  0.00    +0.000 A 
ATOM     11  C   UNL     1       2.847   1.163  -0.371  0.00  0.00    +0.000 A 
ATOM     12  C   UNL     1       1.431   1.271  -0.131  0.00  0.00    +0.000 A 
ATOM     13  C   UNL     1       0.951   1.828   1.107  0.00  0.00    +0.000 A 
ATOM     14  C   UNL     1      -0.465   1.936   1.347  0.00  0.00    +0.000 A 
ATOM     15  C   UNL     1       4.743   0.497  -1.849  0.00  0.00    +0.000 A 
ATOM     16  N   UNL     1       4.255  -0.473  -4.004  0.00  0.00    +0.000 N 
ATOM     17  H   UNL     1       4.595  -0.868  -4.881  0.00  0.00    +0.000 HD
ENDBRANCH   3   8
BRANCH   1  20
ATOM     18  C   UNL     1       1.482  -1.863  -7.092  0.00  0.00    +0.000 C 
ATOM     19  O   UNL     1       1.905  -2.355  -8.185  0.00  0.00    +0.000 OA
ATOM     20  N   UNL     1       0.036  -1.753  -6.847  0.00  0.00    +0.000 N 
ATOM     21  H   UNL     1      -0.626  -2.071  -7.554  0.00  0.00    +0.000 HD
BRANCH  18  25
ATOM     22  C   UNL     1       2.445   0.175  -2.564  0.00  0.00    +0.000 A 
ATOM     23  C   UNL     1       2.925  -0.382  -3.802  0.00  0.00    +0.000 A 
ATOM     24  C   UNL     1       1.989  -0.831  -4.800  0.00  0.00    +0.000 A 
ATOM     25  C   UNL     1       2.469  -1.389  -6.039  0.00  0.00    +0.000 A 
ATOM     26  C   UNL     1       3.885  -1.497  -6.279  0.00  0.00    +0.000 A 
ATOM     27  C   UNL     1       3.381   0.625  -1.566  0.00  0.00    +0.000 A 
BRANCH  27  28
ATOM     28  N   UNL     1       2.891   1.193  -0.302  0.00  0.00    +0.000 N 
ATOM     29  O   UNL     1       1.686   1.285  -0.098  0.00  0.00    +0.000 OA
ATOM     30  O   UNL     1       3.781   1.621   0.647  0.00  0.00    +0.000 OA
ENDBRANCH  27  28
BRANCH  22  31
ATOM     31  O   UNL     1       1.049   0.282  -2.327  0.00  0.00    +0.000 OA
BRANCH  31  33
ATOM     32  C   UNL     1       1.083  -0.006   0.056  0.00  0.00    +0.000 C 
ATOM     33  C   UNL     1       0.576   0.831  -1.107  0.00  0.00    +0.000 C 
ENDBRANCH  31  33
ENDBRANCH  22  31
ENDBRANCH  18  25
ENDBRANCH   1  20
TORSDOF 6
