REMARK  Name = 
REMARK  7 active torsions:
REMARK  status: ('A' for Active; 'I' for Inactive)
REMARK    1  A    between atoms: C_1  and  O_2
REMARK    2  A    between atoms: O_2  and  C_3
REMARK    3  A    between atoms: C_5  and  C_6
REMARK    4  A    between atoms: N_7  and  N_8
REMARK    5  A    between atoms: C_9  and  C_11
REMARK    6  A    between atoms: C_14  and  C_15
REMARK    7  A    between atoms: C_26  and  O_27
REMARK                            x       y       z     vdW  Elec       q    Type
REMARK                         _______ _______ _______ _____ _____    ______ ____
ROOT
ATOM      1  N   UNL     1      -1.988   0.477   5.349  0.00  0.00    +0.000 N 
ATOM      2  C   UNL     1      -1.498   0.899   4.028  0.00  0.00    +0.000 C 
ATOM      3  O   UNL     1      -1.805   2.045   3.573  0.00  0.00    +0.000 OA
ATOM      4  H   UNL     1      -2.574   1.104   5.899  0.00  0.00    +0.000 HD
ENDROOT
BRANCH   2   5
ATOM      5  C   UNL     1      -0.624  -0.036   3.208  0.00  0.00    +0.000 A 
ATOM      6  C   UNL     1      -0.144   0.377   1.915  0.00  0.00    +0.000 A 
ATOM      7  C   UNL     1      -0.492   1.676   1.398  0.00  0.00    +0.000 A 
ATOM      8  C   UNL     1      -0.012   2.089   0.105  0.00  0.00    +0.000 A 
ATOM      9  C   UNL     1       0.816   1.203  -0.672  0.00  0.00    +0.000 A 
ATOM     10  C   UNL     1      -0.276  -1.335   3.724  0.00  0.00    +0.000 A 
BRANCH   8  11
ATOM     11  C   UNL     1      -0.379   3.460  -0.440  0.00  0.00    +0.000 A 
ATOM     12  C   UNL     1      -1.207   4.345   0.337  0.00  0.00    +0.000 A 
ATOM     13  C   UNL     1      -1.687   3.932   1.631  0.00  0.00    +0.000 A 
ATOM     14  C   UNL     1      -2.515   4.818   2.408  0.00  0.00    +0.000 A 
ATOM     15  C   UNL     1      -2.995   4.405   3.702  0.00  0.00    +0.000 A 
ATOM     16  C   UNL     1       0.101   3.873  -1.733  0.00  0.00    +0.000 A 
ENDBRANCH   8  11
ENDBRANCH   2   5
BRANCH   1  18
ATOM     17  C   UNL     1      -0.888  -1.612   5.148  0.00  0.00    +0.000 C 
ATOM     18  N   UNL     1      -1.645  -0.803   5.858  0.00  0.00    +0.000 NA
BRANCH  17  21
ATOM     19  C   UNL     1       0.926  -1.649   1.712  0.00  0.00    +0.000 A 
ATOM     20  C   UNL     1       0.446  -2.062   3.005  0.00  0.00    +0.000 A 
ATOM     21  C   UNL     1      -0.382  -1.176   3.782  0.00  0.00    +0.000 A 
ATOM     22  C   UNL     1      -0.730   0.122   3.266  0.00  0.00    +0.000 A 
ATOM     23  C   UNL     1      -0.249   0.535   1.973  0.00  0.00    +0.000 A 
ATOM     24 BR   UNL     1       0.877  -0.670   0.915  0.00  0.00    +0.000 Br
ATOM     25  C   UNL     1       1.754  -2.535   0.934  0.00  0.00    +0.000 A 
BRANCH  19  27
ATOM     26  C   UNL     1       1.057   0.039  -0.073  0.00  0.00    +0.000 C 
ATOM     27  O   UNL     1       0.583  -0.369   1.203  0.00  0.00    +0.000 OA
ENDBRANCH  19  27
BRANCH  25  28
ATOM     28  O   UNL     1       2.228  -2.127  -0.341  0.00  0.00    +0.000 OA
ATOM     29  H   UNL     1       2.803  -2.742  -0.881  0.00  0.00    +0.000 HD
ENDBRANCH  25  28
ENDBRANCH  17  21
ENDBRANCH   1  18
TORSDOF 6
