REMARK  Name = 
REMARK  8 active torsions:
REMARK  status: ('A' for Active; 'I' for Inactive)
REMARK    1  A    between atoms: C_1  and  O_2
REMARK    2  A    between atoms: O_2  and  C_3
REMARK    3  A    between atoms: N_9  and  C_10
REMARK    4  A    between atoms: C_13  and  C_14
REMARK    5  A    between atoms: C_14  and  O_15
REMARK    6  A    between atoms: N_19  and  C_20
REMARK    7  A    between atoms: N_30  and  C_31
REMARK    8  A    between atoms: C_31  and  C_32
REMARK                            x       y       z     vdW  Elec       q    Type
REMARK                         _______ _______ _______ _____ _____    ______ ____
ROOT
ATOM      1  C   UNL     1       0.787   0.136  -2.499  0.00  0.00    +0.000 A 
ATOM      2  C   UNL     1       0.307  -0.371  -3.759  0.00  0.00    +0.000 A 
ATOM      3  C   UNL     1      -0.521  -1.548  -3.793  0.00  0.00    +0.000 A 
ATOM      4  C   UNL     1      -1.002  -2.055  -5.053  0.00  0.00    +0.000 A 
ATOM      5  C   UNL     1      -0.654  -1.383  -6.279  0.00  0.00    +0.000 A 
ATOM      6  C   UNL     1      -1.134  -1.889  -7.539  0.00  0.00    +0.000 A 
ATOM      7  N   UNL     1      -1.934  -3.028  -7.572  0.00  0.00    +0.000 N 
ATOM      8  C   UNL     1      -2.290  -3.714  -6.321  0.00  0.00    +0.000 C 
ATOM      9  C   UNL     1      -1.830  -3.233  -5.088  0.00  0.00    +0.000 A 
ATOM     10  C   UNL     1       1.615   1.314  -2.465  0.00  0.00    +0.000 A 
ATOM     11  C   UNL     1      -0.766  -1.181  -8.832  0.00  0.00    +0.000 C 
ATOM     12  N   UNL     1       0.695  -1.170  -8.987  0.00  0.00    +0.000 N 
ATOM     13  C   UNL     1       1.315  -1.811 -10.156  0.00  0.00    +0.000 C 
ATOM     14  O   UNL     1       2.579  -1.803 -10.290  0.00  0.00    +0.000 OA
ATOM     15  N   UNL     1       0.473  -2.463 -11.170  0.00  0.00    +0.000 N 
ATOM     16  C   UNL     1       1.537  -0.519  -7.974  0.00  0.00    +0.000 C 
ATOM     17  C   UNL     1       0.220  -0.140  -6.243  0.00  0.00    +0.000 C 
ATOM     18  C   UNL     1       0.587   0.179  -4.803  0.00  0.00    +0.000 C 
ATOM     19  N   UNL     1      -0.638   0.419  -4.026  0.00  0.00    +0.000 NA
ATOM     20  C   UNL     1      -0.540   1.031  -6.843  0.00  0.00    +0.000 C 
ATOM     21  H   UNL     1       0.903  -2.908 -11.980  0.00  0.00    +0.000 HD
ENDROOT
BRANCH  15  22
ATOM     22  C   UNL     1      -0.989  -2.473 -11.014  0.00  0.00    +0.000 A 
ATOM     23  C   UNL     1      -1.596  -1.845  -9.869  0.00  0.00    +0.000 A 
ATOM     24  C   UNL     1      -0.771  -1.207  -8.877  0.00  0.00    +0.000 A 
ATOM     25  C   UNL     1      -1.378  -0.578  -7.732  0.00  0.00    +0.000 A 
ATOM     26  F   UNL     1      -0.616   0.011  -6.815  0.00  0.00    +0.000 F 
ATOM     27  C   UNL     1      -2.810  -0.589  -7.580  0.00  0.00    +0.000 A 
ATOM     28  C   UNL     1      -1.814  -3.112 -12.007  0.00  0.00    +0.000 A 
ENDBRANCH  15  22
BRANCH   1  30
ATOM     29  C   UNL     1       0.917  -0.027  -0.048  0.00  0.00    +0.000 C 
ATOM     30  O   UNL     1       0.444  -0.526  -1.291  0.00  0.00    +0.000 OA
ENDBRANCH   1  30
BRANCH  11  31
ATOM     31  C   UNL     1      -1.282   0.249  -8.791  0.00  0.00    +0.000 C 
BRANCH  31  32
ATOM     32  O   UNL     1      -0.694   0.932  -7.693  0.00  0.00    +0.000 OA
ATOM     33  H   UNL     1      -0.936   0.466  -6.842  0.00  0.00    +0.000 HD
ENDBRANCH  31  32
ENDBRANCH  11  31
BRANCH  19  34
ATOM     34  C   UNL     1      -1.373   1.552  -4.607  0.00  0.00    +0.000 C 
BRANCH  34  35
ATOM     35  C   UNL     1      -0.499   2.795  -4.571  0.00  0.00    +0.000 A 
ATOM     36  C   UNL     1      -0.019   3.301  -3.311  0.00  0.00    +0.000 A 
ATOM     37  C   UNL     1      -0.366   2.629  -2.085  0.00  0.00    +0.000 A 
ATOM     38  C   UNL     1       0.114   3.136  -0.826  0.00  0.00    +0.000 A 
ATOM     39  C   UNL     1      -0.234   2.464   0.400  0.00  0.00    +0.000 A 
ATOM     40  C   UNL     1      -0.151   3.466  -5.797  0.00  0.00    +0.000 A 
ATOM     41  F   UNL     1      -0.594   2.999  -6.960  0.00  0.00    +0.000 F 
ENDBRANCH  34  35
ENDBRANCH  19  34
TORSDOF 6
