REMARK  Name = 
REMARK  6 active torsions:
REMARK  status: ('A' for Active; 'I' for Inactive)
REMARK    1  A    between atoms: C_1  and  N_2
REMARK    2  A    between atoms: N_5  and  C_6
REMARK    3  A    between atoms: C_6  and  C_7
REMARK    4  A    between atoms: C_10  and  N_11
REMARK    5  A    between atoms: C_18  and  C_19
REMARK    6  A    between atoms: N_23  and  C_24
REMARK                            x       y       z     vdW  Elec       q    Type
REMARK                         _______ _______ _______ _____ _____    ______ ____
ROOT
ATOM      1  N   UNL     1      -1.054  -1.928   5.235  0.00  0.00    +0.000 N 
ATOM      2  C   UNL     1      -1.789  -1.476   6.425  0.00  0.00    +0.000 A 
ATOM      3  N   UNL     1      -3.182  -1.476   6.425  0.00  0.00    +0.000 NA
ATOM      4  C   UNL     1      -3.878  -1.048   7.553  0.00  0.00    +0.000 A 
ATOM      5  C   UNL     1      -3.158  -0.605   8.719  0.00  0.00    +0.000 A 
ATOM      6  C   UNL     1      -1.718  -0.605   8.719  0.00  0.00    +0.000 A 
ATOM      7  O   UNL     1      -1.083  -0.996   7.690  0.00  0.00    +0.000 OA
ATOM      8  C   UNL     1      -0.998  -0.163   9.885  0.00  0.00    +0.000 A 
ATOM      9  C   UNL     1       0.442  -0.163   9.885  0.00  0.00    +0.000 A 
ATOM     10  N   UNL     1       1.139  -0.591   8.757  0.00  0.00    +0.000 N 
ATOM     11  C   UNL     1      -3.878  -0.163   9.885  0.00  0.00    +0.000 A 
ATOM     12  N   UNL     1      -1.093  -1.048   7.553  0.00  0.00    +0.000 NA
ATOM     13  H   UNL     1      -0.034  -1.928   5.235  0.00  0.00    +0.000 HD
ENDROOT
BRANCH  10  14
ATOM     14  C   UNL     1       0.404  -1.043   7.567  0.00  0.00    +0.000 A 
ATOM     15  C   UNL     1       1.124  -1.485   6.401  0.00  0.00    +0.000 A 
ATOM     16  C   UNL     1       2.564  -1.485   6.401  0.00  0.00    +0.000 A 
ATOM     17  C   UNL     1       3.284  -1.928   5.235  0.00  0.00    +0.000 A 
ATOM     18  C   UNL     1       2.564  -2.371   4.069  0.00  0.00    +0.000 A 
ATOM     19  C   UNL     1      -1.037  -1.043   7.567  0.00  0.00    +0.000 A 
ATOM     20  C   UNL     1       3.324  -2.838   2.838  0.00  0.00    +0.000 C 
ATOM     21  C   UNL     1       4.198  -1.706   2.322  0.00  0.00    +0.000 C 
ATOM     22  C   UNL     1       4.804  -1.928   5.235  0.00  0.00    +0.000 C 
ENDBRANCH  10  14
BRANCH   1  26
ATOM     23  C   UNL     1      -1.069  -3.708   0.546  0.00  0.00    +0.000 A 
ATOM     24  C   UNL     1      -1.789  -3.265   1.712  0.00  0.00    +0.000 A 
ATOM     25  C   UNL     1      -1.069  -2.822   2.878  0.00  0.00    +0.000 A 
ATOM     26  C   UNL     1      -1.789  -2.380   4.044  0.00  0.00    +0.000 A 
ATOM     27  C   UNL     1      -3.229  -2.380   4.044  0.00  0.00    +0.000 A 
ATOM     28  C   UNL     1      -1.789  -4.150  -0.620  0.00  0.00    +0.000 A 
BRANCH  23  29
ATOM     29  C   UNL     1       0.451  -3.708   0.546  0.00  0.00    +0.000 C 
BRANCH  29  34
ATOM     30  C   UNL     1       0.958  -0.049  -0.076  0.00  0.00    +0.000 C 
ATOM     31  N   UNL     1       0.468   0.443   1.219  0.00  0.00    +0.000 NA
ATOM     32  C   UNL     1       0.958  -0.433   2.293  0.00  0.00    +0.000 C 
ATOM     33  C   UNL     1       0.451  -1.848   2.064  0.00  0.00    +0.000 C 
ATOM     34  N   UNL     1       0.941  -2.340   0.768  0.00  0.00    +0.000 NA
ATOM     35  C   UNL     1       0.451  -1.463  -0.306  0.00  0.00    +0.000 C 
ATOM     36  C   UNL     1      -1.002   0.443   1.219  0.00  0.00    +0.000 C 
ENDBRANCH  29  34
ENDBRANCH  23  29
ENDBRANCH   1  26
BRANCH   8  37
ATOM     37  C   UNL     1      -1.758   0.304  11.115  0.00  0.00    +0.000 C 
ATOM     38  N   UNL     1      -1.023   0.756  12.305  0.00  0.00    +0.000 N 
ATOM     39  O   UNL     1      -3.029   0.304  11.115  0.00  0.00    +0.000 OA
ATOM     40  H   UNL     1      -1.533   1.070  13.131  0.00  0.00    +0.000 HD
ATOM     41  H   UNL     1      -0.003   0.756  12.305  0.00  0.00    +0.000 HD
ENDBRANCH   8  37
TORSDOF 5
