REMARK  Name = 
REMARK  10 active torsions:
REMARK  status: ('A' for Active; 'I' for Inactive)
REMARK    1  A    between atoms: C_1  and  O_2
REMARK    2  A    between atoms: O_2  and  C_3
REMARK    3  A    between atoms: C_5  and  N_6
REMARK    4  A    between atoms: N_13  and  C_14
REMARK    5  A    between atoms: C_15  and  C_16
REMARK    6  A    between atoms: C_20  and  C_21
REMARK    7  A    between atoms: C_34  and  O_35
REMARK    8  A    between atoms: O_35  and  C_36
REMARK    9  A    between atoms: C_37  and  O_38
REMARK   10  A    between atoms: O_38  and  C_39
REMARK                            x       y       z     vdW  Elec       q    Type
REMARK                         _______ _______ _______ _____ _____    ______ ____
ROOT
ATOM      1  N   UNL     1      -0.995  -5.249   1.140  0.00  0.00    +0.000 N 
ATOM      2  C   UNL     1      -1.840  -5.499   2.316  0.00  0.00    +0.000 A 
ATOM      3  N   UNL     1      -2.176  -4.449   3.168  0.00  0.00    +0.000 NA
ATOM      4  C   UNL     1      -2.977  -4.686   4.283  0.00  0.00    +0.000 A 
ATOM      5  C   UNL     1      -3.457  -6.016   4.555  0.00  0.00    +0.000 A 
ATOM      6  C   UNL     1      -3.109  -7.101   3.675  0.00  0.00    +0.000 A 
ATOM      7  O   UNL     1      -2.379  -6.886   2.658  0.00  0.00    +0.000 OA
ATOM      8  N   UNL     1      -3.574  -8.388   3.938  0.00  0.00    +0.000 N 
ATOM      9  C   UNL     1      -3.237  -9.438   3.087  0.00  0.00    +0.000 A 
ATOM     10  N   UNL     1      -3.701 -10.724   3.350  0.00  0.00    +0.000 NA
ATOM     11  C   UNL     1      -3.365 -11.774   2.499  0.00  0.00    +0.000 A 
ATOM     12  C   UNL     1      -3.845 -13.104   2.771  0.00  0.00    +0.000 A 
ATOM     13  C   UNL     1      -4.673 -13.349   3.924  0.00  0.00    +0.000 A 
ATOM     14  C   UNL     1      -5.153 -14.679   4.197  0.00  0.00    +0.000 A 
ATOM     15  C   UNL     1      -5.981 -14.924   5.349  0.00  0.00    +0.000 A 
ATOM     16  C   UNL     1      -2.537 -11.529   1.346  0.00  0.00    +0.000 A 
ATOM     17  N   UNL     1      -2.436  -9.201   1.972  0.00  0.00    +0.000 N 
ATOM     18  C   UNL     1      -4.285  -6.261   5.708  0.00  0.00    +0.000 A 
ATOM     19  N   UNL     1      -2.304  -6.785   2.580  0.00  0.00    +0.000 NA
ATOM     20  H   UNL     1      -0.748  -6.018   0.516  0.00  0.00    +0.000 HD
ENDROOT
BRANCH   8  21
ATOM     21  C   UNL     1      -4.419  -8.638   5.115  0.00  0.00    +0.000 A 
ATOM     22  C   UNL     1      -4.767  -7.552   5.995  0.00  0.00    +0.000 A 
ATOM     23  C   UNL     1      -4.260  -6.148   5.707  0.00  0.00    +0.000 C 
ATOM     24  C   UNL     1      -5.595  -7.797   7.148  0.00  0.00    +0.000 A 
ATOM     25  C   UNL     1      -6.075  -9.127   7.420  0.00  0.00    +0.000 A 
ATOM     26  C   UNL     1      -6.903  -9.372   8.573  0.00  0.00    +0.000 A 
ATOM     27  C   UNL     1      -4.899  -9.968   5.387  0.00  0.00    +0.000 A 
ATOM     28  C   UNL     1      -4.532 -11.114   4.458  0.00  0.00    +0.000 C 
ENDBRANCH   8  21
BRANCH   1  31
ATOM     29  C   UNL     1       0.803  -2.316  -0.563  0.00  0.00    +0.000 A 
ATOM     30  C   UNL     1       0.323  -3.647  -0.291  0.00  0.00    +0.000 A 
ATOM     31  C   UNL     1      -0.505  -3.891   0.862  0.00  0.00    +0.000 A 
ATOM     32  C   UNL     1      -0.853  -2.806   1.742  0.00  0.00    +0.000 A 
ATOM     33  C   UNL     1      -0.373  -1.476   1.470  0.00  0.00    +0.000 A 
ATOM     34  C   UNL     1       1.631  -2.072  -1.716  0.00  0.00    +0.000 A 
BRANCH  29  36
ATOM     35  C   UNL     1       0.934   0.065   0.036  0.00  0.00    +0.000 C 
ATOM     36  O   UNL     1       0.460  -1.246   0.305  0.00  0.00    +0.000 OA
ENDBRANCH  29  36
BRANCH  33  37
ATOM     37  O   UNL     1       0.444  -1.234   0.333  0.00  0.00    +0.000 OA
ATOM     38  C   UNL     1       0.917   0.077   0.065  0.00  0.00    +0.000 C 
ENDBRANCH  33  37
BRANCH  34  39
ATOM     39  O   UNL     1       2.105  -0.760  -1.985  0.00  0.00    +0.000 OA
ATOM     40  C   UNL     1       2.921  -0.519  -3.121  0.00  0.00    +0.000 C 
ENDBRANCH  34  39
ENDBRANCH   1  31
TORSDOF 5
