REMARK  Name = 
REMARK  8 active torsions:
REMARK  status: ('A' for Active; 'I' for Inactive)
REMARK    1  A    between atoms: C_1  and  C_2
REMARK    2  A    between atoms: C_2  and  O_3
REMARK    3  A    between atoms: O_3  and  C_4
REMARK    4  A    between atoms: C_4  and  C_6
REMARK    5  A    between atoms: C_6  and  C_7
REMARK    6  A    between atoms: C_12  and  C_25
REMARK    7  A    between atoms: N_13  and  S_14
REMARK    8  A    between atoms: S_14  and  C_17
REMARK                            x       y       z     vdW  Elec       q    Type
REMARK                         _______ _______ _______ _____ _____    ______ ____
ROOT
ATOM      1  C   UNL     1       2.417   3.686   2.417  0.00  0.00    +0.000 A 
ATOM      2  C   UNL     1       2.765   4.011   1.058  0.00  0.00    +0.000 A 
ATOM      3  S   UNL     1       3.751   2.944   0.147  0.00  0.00    +0.000 S 
ATOM      4  C   UNL     1       4.322   1.490   0.854  0.00  0.00    +0.000 A 
ATOM      5  N   UNL     1       5.168   0.575   0.073  0.00  0.00    +0.000 N 
ATOM      6  C   UNL     1       5.523   0.907  -1.315  0.00  0.00    +0.000 C 
ATOM      7  N   UNL     1       6.279   0.088  -2.014  0.00  0.00    +0.000 NA
ATOM      8  N   UNL     1       1.616   4.553   3.157  0.00  0.00    +0.000 NA
ATOM      9  H   UNL     1       5.508  -0.290   0.493  0.00  0.00    +0.000 HD
ENDROOT
BRANCH   6  10
ATOM     10  C   UNL     1       5.016   2.196  -1.941  0.00  0.00    +0.000 A 
ATOM     11  C   UNL     1       5.364   2.521  -3.301  0.00  0.00    +0.000 A 
ATOM     12  C   UNL     1       6.192   1.624  -4.066  0.00  0.00    +0.000 A 
ATOM     13  C   UNL     1       6.540   1.949  -5.425  0.00  0.00    +0.000 A 
ATOM     14  C   UNL     1       7.368   1.053  -6.190  0.00  0.00    +0.000 A 
ATOM     15  C   UNL     1       4.188   3.092  -1.176  0.00  0.00    +0.000 A 
ENDBRANCH   6  10
BRANCH   7  16
ATOM     16  S   UNL     1       6.704   0.485  -3.675  0.00  0.00    +0.000 S 
ATOM     17  O   UNL     1       5.429   0.615  -4.511  0.00  0.00    +0.000 OA
ATOM     18  O   UNL     1       7.469   1.811  -3.703  0.00  0.00    +0.000 OA
BRANCH  16  19
ATOM     19  C   UNL     1       7.745  -0.827  -4.361  0.00  0.00    +0.000 A 
ATOM     20  C   UNL     1       8.225  -0.731  -5.716  0.00  0.00    +0.000 A 
ATOM     21  C   UNL     1       7.877   0.409  -6.524  0.00  0.00    +0.000 A 
ATOM     22  C   UNL     1       8.357   0.506  -7.878  0.00  0.00    +0.000 A 
ATOM     23  F   UNL     1       8.036   1.559  -8.625  0.00  0.00    +0.000 F 
ATOM     24  C   UNL     1       9.185  -0.539  -8.425  0.00  0.00    +0.000 A 
ATOM     25  C   UNL     1       8.093  -1.967  -3.553  0.00  0.00    +0.000 A 
ATOM     26  F   UNL     1       7.649  -2.056  -2.302  0.00  0.00    +0.000 F 
ENDBRANCH  16  19
ENDBRANCH   7  16
BRANCH   1  27
ATOM     27  C   UNL     1       2.924   2.397   3.044  0.00  0.00    +0.000 C 
BRANCH  27  28
ATOM     28  C   UNL     1       2.417   1.210   2.241  0.00  0.00    +0.000 C 
ATOM     29  O   UNL     1       3.243   0.410   1.700  0.00  0.00    +0.000 OA
BRANCH  28  30
ATOM     30  O   UNL     1       1.021   0.995   2.096  0.00  0.00    +0.000 OA
BRANCH  30  32
ATOM     31  C   UNL     1       1.054  -0.013  -0.083  0.00  0.00    +0.000 C 
ATOM     32  C   UNL     1       0.547  -0.114   1.346  0.00  0.00    +0.000 C 
ENDBRANCH  30  32
ENDBRANCH  28  30
ENDBRANCH  27  28
ENDBRANCH   1  27
TORSDOF 7
