REMARK  Name = 
REMARK  3 active torsions:
REMARK  status: ('A' for Active; 'I' for Inactive)
REMARK    1  A    between atoms: C_2  and  C_4
REMARK    2  A    between atoms: C_10  and  C_11
REMARK    3  A    between atoms: C_18  and  N_19
REMARK                            x       y       z     vdW  Elec       q    Type
REMARK                         _______ _______ _______ _____ _____    ______ ____
ROOT
ATOM      1  C   UNL     1       1.041  -2.190   1.277  0.00  0.00    +0.000 A 
ATOM      2  S   UNL     1       0.184  -3.496   1.984  0.00  0.00    +0.000 S 
ATOM      3  C   UNL     1       1.041  -4.803   2.690  0.00  0.00    +0.000 A 
ATOM      4  N   UNL     1       0.345  -5.863   3.264  0.00  0.00    +0.000 NA
ATOM      5  C   UNL     1       1.041  -6.924   3.838  0.00  0.00    +0.000 A 
ATOM      6  C   UNL     1       0.321  -8.021   4.432  0.00  0.00    +0.000 A 
ATOM      7  C   UNL     1      -1.119  -8.021   4.432  0.00  0.00    +0.000 A 
ATOM      8  C   UNL     1       2.481  -4.803   2.690  0.00  0.00    +0.000 A 
ATOM      9  C   UNL     1       2.481  -2.190   1.277  0.00  0.00    +0.000 A 
ATOM     10  C   UNL     1       1.081  -9.179   5.058  0.00  0.00    +0.000 C 
ATOM     11  C   UNL     1       1.955  -9.841   4.005  0.00  0.00    +0.000 C 
ATOM     12  C   UNL     1       2.561  -6.924   3.838  0.00  0.00    +0.000 C 
ENDROOT
BRANCH   7  13
ATOM     13  C   UNL     1      -1.879  -6.864   3.805  0.00  0.00    +0.000 A 
ATOM     14  C   UNL     1      -3.319  -6.864   3.805  0.00  0.00    +0.000 A 
ATOM     15  C   UNL     1      -4.040  -7.961   4.399  0.00  0.00    +0.000 A 
ATOM     16  C   UNL     1      -5.480  -7.961   4.399  0.00  0.00    +0.000 A 
ATOM     17  C   UNL     1      -6.200  -9.058   4.992  0.00  0.00    +0.000 A 
ATOM     18  C   UNL     1      -1.159  -5.767   3.212  0.00  0.00    +0.000 A 
ENDBRANCH   7  13
BRANCH   1  20
ATOM     19  N   UNL     1       1.016   0.088   0.045  0.00  0.00    +0.000 N 
ATOM     20  C   UNL     1       0.281  -1.032   0.651  0.00  0.00    +0.000 C 
ATOM     21  O   UNL     1      -0.990  -1.032   0.651  0.00  0.00    +0.000 OA
ATOM     22  H   UNL     1       0.506   0.865  -0.375  0.00  0.00    +0.000 HD
ATOM     23  H   UNL     1       2.036   0.088   0.045  0.00  0.00    +0.000 HD
ENDBRANCH   1  20
BRANCH   9  24
ATOM     24  N   UNL     1       3.216  -1.070   0.672  0.00  0.00    +0.000 N 
ATOM     25  H   UNL     1       2.706  -0.293   0.251  0.00  0.00    +0.000 HD
ATOM     26  H   UNL     1       4.236  -1.070   0.672  0.00  0.00    +0.000 HD
ENDBRANCH   9  24
TORSDOF 3
