REMARK  Name = 
REMARK  7 active torsions:
REMARK  status: ('A' for Active; 'I' for Inactive)
REMARK    1  A    between atoms: C_1  and  C_2
REMARK    2  A    between atoms: C_2  and  O_3
REMARK    3  A    between atoms: O_3  and  C_4
REMARK    4  A    between atoms: C_4  and  C_6
REMARK    5  A    between atoms: C_7  and  C_8
REMARK    6  A    between atoms: C_8  and  C_9
REMARK    7  A    between atoms: C_21  and  O_22
REMARK                            x       y       z     vdW  Elec       q    Type
REMARK                         _______ _______ _______ _____ _____    ______ ____
ROOT
ATOM      1  C   UNL     1       2.892  -3.126   2.559  0.00  0.00    +0.000 A 
ATOM      2  C   UNL     1       4.308  -3.269   2.780  0.00  0.00    +0.000 A 
ATOM      3  N   UNL     1       4.772  -3.981   3.884  0.00  0.00    +0.000 N 
ATOM      4  C   UNL     1       3.867  -4.555   4.773  0.00  0.00    +0.000 A 
ATOM      5  C   UNL     1       1.539  -7.071   8.674  0.00  0.00    +0.000 A 
ATOM      6  C   UNL     1       1.059  -6.335   7.533  0.00  0.00    +0.000 A 
ATOM      7  C   UNL     1       1.995  -5.742   6.613  0.00  0.00    +0.000 A 
ATOM      8  C   UNL     1       1.515  -5.005   5.472  0.00  0.00    +0.000 A 
ATOM      9  C   UNL     1       0.099  -4.863   5.251  0.00  0.00    +0.000 A 
ATOM     10  C   UNL     1      -0.381  -4.127   4.110  0.00  0.00    +0.000 A 
ATOM     11  C   UNL     1      -1.797  -3.984   3.889  0.00  0.00    +0.000 A 
ATOM     12  C   UNL     1       1.971  -3.676   3.411  0.00  0.00    +0.000 A 
ATOM     13  C   UNL     1       2.451  -4.412   4.552  0.00  0.00    +0.000 A 
ATOM     14  H   UNL     1       5.775  -4.082   4.040  0.00  0.00    +0.000 HD
ENDROOT
BRANCH   1  15
ATOM     15  C   UNL     1       2.385  -2.349   1.355  0.00  0.00    +0.000 C 
ATOM     16  O   UNL     1       3.211  -1.826   0.543  0.00  0.00    +0.000 OA
BRANCH  15  17
ATOM     17  O   UNL     1       0.989  -2.209   1.137  0.00  0.00    +0.000 OA
BRANCH  17  19
ATOM     18  C   UNL     1       1.022  -0.051   0.083  0.00  0.00    +0.000 C 
ATOM     19  C   UNL     1       0.516  -1.483   0.012  0.00  0.00    +0.000 C 
ENDBRANCH  17  19
ENDBRANCH  15  17
ENDBRANCH   1  15
BRANCH   7  20
ATOM     20  O   UNL     1       3.391  -5.882   6.831  0.00  0.00    +0.000 OA
ATOM     21  H   UNL     1       3.725  -6.393   7.623  0.00  0.00    +0.000 HD
ENDBRANCH   7  20
BRANCH   2  22
ATOM     22  C   UNL     1       5.295  -2.643   1.810  0.00  0.00    +0.000 C 
BRANCH  22  23
ATOM     23  C   UNL     1       6.169  -1.643   2.550  0.00  0.00    +0.000 A 
ATOM     24  C   UNL     1       5.569  -0.514   3.213  0.00  0.00    +0.000 A 
ATOM     25 CL   UNL     1       3.804  -0.289   3.165  0.00  0.00    +0.000 Cl
ATOM     26  C   UNL     1       6.397   0.433   3.914  0.00  0.00    +0.000 A 
ATOM     27  C   UNL     1       7.825   0.250   3.953  0.00  0.00    +0.000 A 
ATOM     28  C   UNL     1       8.653   1.197   4.655  0.00  0.00    +0.000 A 
ATOM     29  C   UNL     1       7.597  -1.826   2.589  0.00  0.00    +0.000 A 
ATOM     30 CL   UNL     1       8.339  -3.221   1.770  0.00  0.00    +0.000 Cl
ENDBRANCH  22  23
ENDBRANCH   2  22
TORSDOF 6
