REMARK  Name = 
REMARK  7 active torsions:
REMARK  status: ('A' for Active; 'I' for Inactive)
REMARK    1  A    between atoms: C_1  and  C_2
REMARK    2  A    between atoms: C_4  and  C_5
REMARK    3  A    between atoms: C_12  and  C_13
REMARK    4  A    between atoms: N_15  and  C_16
REMARK    5  A    between atoms: C_16  and  C_17
REMARK    6  A    between atoms: C_17  and  C_18
REMARK    7  A    between atoms: C_19  and  C_20
REMARK                            x       y       z     vdW  Elec       q    Type
REMARK                         _______ _______ _______ _____ _____    ______ ____
ROOT
ATOM      1  C   UNL     1       1.959  -4.313  -2.497  0.00  0.00    +0.000 C 
ATOM      2  O   UNL     1       2.382  -5.458  -2.851  0.00  0.00    +0.000 OA
ATOM      3  N   UNL     1       1.114  -3.528  -3.408  0.00  0.00    +0.000 N 
ATOM      4  H   UNL     1       0.867  -3.902  -4.324  0.00  0.00    +0.000 HD
ENDROOT
BRANCH   1  16
ATOM      5  C   UNL     1       0.914   0.041   0.029  0.00  0.00    +0.000 C 
ATOM      6  C   UNL     1       0.407   1.410   0.453  0.00  0.00    +0.000 A 
ATOM      7  C   UNL     1       0.755   1.939   1.747  0.00  0.00    +0.000 A 
ATOM      8  C   UNL     1       1.583   1.169   2.640  0.00  0.00    +0.000 A 
ATOM      9  C   UNL     1       1.950   1.727   4.005  0.00  0.00    +0.000 C 
ATOM     10  N   UNL     1       2.047  -0.085   2.252  0.00  0.00    +0.000 NA
ATOM     11  C   UNL     1       2.848  -0.829   3.115  0.00  0.00    +0.000 A 
ATOM     12  N   UNL     1       3.338  -2.153   2.705  0.00  0.00    +0.000 N 
ATOM     13  C   UNL     1       2.983  -2.692   1.385  0.00  0.00    +0.000 A 
ATOM     14  N   UNL     1       2.182  -1.948   0.521  0.00  0.00    +0.000 NA
ATOM     15  C   UNL     1       1.846  -2.459  -0.730  0.00  0.00    +0.000 A 
ATOM     16  C   UNL     1       2.326  -3.756  -1.131  0.00  0.00    +0.000 A 
ATOM     17  C   UNL     1       3.154  -4.525  -0.238  0.00  0.00    +0.000 A 
ATOM     18  N   UNL     1       3.447  -3.947   0.997  0.00  0.00    +0.000 NA
ATOM     19  C   UNL     1      -0.421   2.180  -0.440  0.00  0.00    +0.000 A 
ATOM     20  H   UNL     1       3.925  -2.698   3.338  0.00  0.00    +0.000 HD
ENDBRANCH   1  16
BRANCH   3  21
ATOM     21  C   UNL     1       0.624  -2.204  -2.999  0.00  0.00    +0.000 C 
BRANCH  21  22
ATOM     22  C   UNL     1       1.130  -1.153  -3.972  0.00  0.00    +0.000 C 
BRANCH  22  23
ATOM     23  C   UNL     1       0.624  -1.471  -5.370  0.00  0.00    +0.000 A 
ATOM     24  C   UNL     1       0.971  -2.721  -5.995  0.00  0.00    +0.000 A 
ATOM     25  C   UNL     1       1.845  -3.722  -5.257  0.00  0.00    +0.000 C 
ATOM     26  N   UNL     1       0.507  -3.012  -7.275  0.00  0.00    +0.000 N 
ATOM     27  C   UNL     1      -0.294  -2.095  -7.951  0.00  0.00    +0.000 A 
ATOM     28  C   UNL     1      -0.642  -0.845  -7.326  0.00  0.00    +0.000 A 
ATOM     29  C   UNL     1      -0.161  -0.543  -6.002  0.00  0.00    +0.000 A 
ATOM     30  C   UNL     1      -0.509   0.706  -5.377  0.00  0.00    +0.000 A 
ATOM     31 CL   UNL     1       0.084   1.079  -3.741  0.00  0.00    +0.000 Cl
ATOM     32  C   UNL     1      -1.337   1.655  -6.076  0.00  0.00    +0.000 A 
ATOM     33  C   UNL     1      -0.774  -2.396  -9.275  0.00  0.00    +0.000 A 
ATOM     34  H   UNL     1       0.754  -3.897  -7.718  0.00  0.00    +0.000 HD
ENDBRANCH  22  23
ENDBRANCH  21  22
ENDBRANCH   3  21
TORSDOF 4
