REMARK  Name = 
REMARK  8 active torsions:
REMARK  status: ('A' for Active; 'I' for Inactive)
REMARK    1  A    between atoms: C_1  and  C_2
REMARK    2  A    between atoms: C_2  and  C_4
REMARK    3  A    between atoms: C_8  and  N_9
REMARK    4  A    between atoms: C_13  and  C_14
REMARK    5  A    between atoms: N_16  and  C_17
REMARK    6  A    between atoms: C_17  and  C_18
REMARK    7  A    between atoms: C_18  and  C_19
REMARK    8  A    between atoms: C_20  and  C_21
REMARK                            x       y       z     vdW  Elec       q    Type
REMARK                         _______ _______ _______ _____ _____    ______ ____
ROOT
ATOM      1  N   UNL     1      -2.020  -3.902   3.922  0.00  0.00    +0.000 N 
ATOM      2  C   UNL     1      -1.530  -2.627   3.380  0.00  0.00    +0.000 A 
ATOM      3  N   UNL     1      -0.729  -2.617   2.240  0.00  0.00    +0.000 NA
ATOM      4  C   UNL     1      -0.265  -1.408   1.726  0.00  0.00    +0.000 A 
ATOM      5  C   UNL     1      -0.613  -0.169   2.372  0.00  0.00    +0.000 A 
ATOM      6  C   UNL     1      -1.441  -0.180   3.551  0.00  0.00    +0.000 A 
ATOM      7  N   UNL     1      -1.866  -1.428   4.005  0.00  0.00    +0.000 NA
ATOM      8  H   UNL     1      -2.606  -3.909   4.757  0.00  0.00    +0.000 HD
ENDROOT
BRANCH   1  13
ATOM      9  C   UNL     1       0.951  -2.647  -0.158  0.00  0.00    +0.000 A 
ATOM     10  C   UNL     1       0.471  -3.896   0.374  0.00  0.00    +0.000 A 
ATOM     11  C   UNL     1      -0.357  -3.907   1.552  0.00  0.00    +0.000 A 
ATOM     12  C   UNL     1      -0.837  -5.156   2.084  0.00  0.00    +0.000 A 
ATOM     13  C   UNL     1      -1.665  -5.166   3.263  0.00  0.00    +0.000 A 
ATOM     14  N   UNL     1       1.752  -2.637  -1.297  0.00  0.00    +0.000 NA
BRANCH   9  16
ATOM     15  C   UNL     1       1.091  -0.021  -0.036  0.00  0.00    +0.000 C 
ATOM     16  C   UNL     1       0.584  -1.339   0.525  0.00  0.00    +0.000 C 
ATOM     17  O   UNL     1      -0.147  -1.348   1.565  0.00  0.00    +0.000 OA
ENDBRANCH   9  16
ENDBRANCH   1  13
BRANCH   5  18
ATOM     18  C   UNL     1      -0.106   1.149   1.811  0.00  0.00    +0.000 C 
ATOM     19  O   UNL     1      -0.413   2.243   2.382  0.00  0.00    +0.000 OA
ATOM     20  N   UNL     1       0.739   1.160   0.609  0.00  0.00    +0.000 N 
ATOM     21  H   UNL     1       1.079   2.045   0.232  0.00  0.00    +0.000 HD
BRANCH  20  22
ATOM     22  C   UNL     1       1.094  -0.105  -0.051  0.00  0.00    +0.000 C 
BRANCH  22  23
ATOM     23  C   UNL     1       0.579  -0.092  -1.481  0.00  0.00    +0.000 C 
BRANCH  23  24
ATOM     24  C   UNL     1       1.208   1.068  -2.236  0.00  0.00    +0.000 A 
ATOM     25  C   UNL     1       1.004   2.419  -1.781  0.00  0.00    +0.000 A 
ATOM     26  C   UNL     1       0.159   2.685  -0.546  0.00  0.00    +0.000 C 
ATOM     27  N   UNL     1       1.580   3.481  -2.473  0.00  0.00    +0.000 N 
ATOM     28  C   UNL     1       2.354   3.237  -3.605  0.00  0.00    +0.000 A 
ATOM     29  C   UNL     1       2.558   1.886  -4.060  0.00  0.00    +0.000 A 
ATOM     30  C   UNL     1       1.962   0.787  -3.345  0.00  0.00    +0.000 A 
ATOM     31  C   UNL     1       2.166  -0.564  -3.800  0.00  0.00    +0.000 A 
ATOM     32  C   UNL     1       1.570  -1.662  -3.085  0.00  0.00    +0.000 A 
ATOM     33  C   UNL     1       2.950   4.336  -4.320  0.00  0.00    +0.000 A 
ATOM     34  H   UNL     1       1.436   4.438  -2.150  0.00  0.00    +0.000 HD
ENDBRANCH  23  24
ENDBRANCH  22  23
ENDBRANCH  20  22
ENDBRANCH   5  18
TORSDOF 6
