REMARK  Name = 
REMARK  7 active torsions:
REMARK  status: ('A' for Active; 'I' for Inactive)
REMARK    1  A    between atoms: C_1  and  C_2
REMARK    2  A    between atoms: C_2  and  C_3
REMARK    3  A    between atoms: C_6  and  C_7
REMARK    4  A    between atoms: C_7  and  N_9
REMARK    5  A    between atoms: N_14  and  O_15
REMARK    6  A    between atoms: C_21  and  O_22
REMARK    7  A    between atoms: O_22  and  C_23
REMARK                            x       y       z     vdW  Elec       q    Type
REMARK                         _______ _______ _______ _____ _____    ______ ____
ROOT
ATOM      1  C   UNL     1       0.950  -0.017   2.410  0.00  0.00    +0.000 A 
ATOM      2  C   UNL     1       2.366   0.109   2.641  0.00  0.00    +0.000 A 
ATOM      3  C   UNL     1       3.302  -0.413   1.679  0.00  0.00    +0.000 A 
ATOM      4  C   UNL     1       2.822  -1.060   0.485  0.00  0.00    +0.000 A 
ATOM      5  C   UNL     1       3.758  -1.582  -0.477  0.00  0.00    +0.000 A 
ATOM      6  C   UNL     1       5.174  -1.457  -0.245  0.00  0.00    +0.000 A 
ATOM      7  C   UNL     1       6.110  -1.979  -1.208  0.00  0.00    +0.000 A 
ATOM      8  N   UNL     1       4.672  -0.292   1.903  0.00  0.00    +0.000 N 
ATOM      9  N   UNL     1       0.045   0.488   3.341  0.00  0.00    +0.000 NA
ENDROOT
BRANCH   1  11
ATOM     10  C   UNL     1       0.950   0.050  -0.071  0.00  0.00    +0.000 C 
ATOM     11  C   UNL     1       0.444  -0.700   1.150  0.00  0.00    +0.000 C 
ENDBRANCH   1  11
BRANCH   4  12
ATOM     12  C   UNL     1       1.328  -1.193   0.241  0.00  0.00    +0.000 C 
ATOM     13  O   UNL     1       0.904  -1.764  -0.812  0.00  0.00    +0.000 OA
BRANCH  12  14
ATOM     14  N   UNL     1       0.372  -0.660   1.223  0.00  0.00    +0.000 NA
ATOM     15  C   UNL     1      -0.921  -0.775   1.012  0.00  0.00    +0.000 A 
ATOM     16  C   UNL     1      -1.857  -0.253   1.974  0.00  0.00    +0.000 A 
ATOM     17 CL   UNL     1      -1.264   0.547   3.450  0.00  0.00    +0.000 Cl
ATOM     18  C   UNL     1      -3.273  -0.378   1.743  0.00  0.00    +0.000 A 
ATOM     19  N   UNL     1      -3.737  -1.004   0.589  0.00  0.00    +0.000 N 
ATOM     20  C   UNL     1      -2.832  -1.509  -0.342  0.00  0.00    +0.000 A 
ATOM     21  C   UNL     1      -1.401  -1.422  -0.181  0.00  0.00    +0.000 A 
ATOM     22 CL   UNL     1      -0.244  -2.067  -1.371  0.00  0.00    +0.000 Cl
BRANCH  19  23
ATOM     23  O   UNL     1      -5.084  -1.124   0.369  0.00  0.00    +0.000 OA
ATOM     24  H   UNL     1      -5.734  -0.761   1.037  0.00  0.00    +0.000 HD
ENDBRANCH  19  23
ENDBRANCH  12  14
ENDBRANCH   4  12
BRANCH   7  25
ATOM     25  O   UNL     1       5.636  -2.617  -2.385  0.00  0.00    +0.000 OA
ATOM     26  C   UNL     1       6.559  -3.131  -3.333  0.00  0.00    +0.000 C 
ENDBRANCH   7  25
TORSDOF 5
