REMARK  Name = 
REMARK  6 active torsions:
REMARK  status: ('A' for Active; 'I' for Inactive)
REMARK    1  A    between atoms: C_2  and  C_3
REMARK    2  A    between atoms: C_4  and  C_5
REMARK    3  A    between atoms: C_10  and  C_11
REMARK    4  A    between atoms: C_17  and  C_18
REMARK    5  A    between atoms: C_18  and  O_19
REMARK    6  A    between atoms: N_23  and  C_24
REMARK                            x       y       z     vdW  Elec       q    Type
REMARK                         _______ _______ _______ _____ _____    ______ ____
ROOT
ATOM      1  C   UNL     1       3.776   0.054   0.084  0.00  0.00    +0.000 C 
ATOM      2  C   UNL     1       6.454  -1.227  -1.926  0.00  0.00    +0.000 C 
ATOM      3  C   UNL     1       5.111  -0.519  -2.007  0.00  0.00    +0.000 C 
ATOM      4  N   UNL     1       4.266  -0.941  -0.881  0.00  0.00    +0.000 N 
ATOM      5  C   UNL     1       3.911  -2.358  -0.719  0.00  0.00    +0.000 C 
ATOM      6  O   UNL     1       3.180  -2.723   0.254  0.00  0.00    +0.000 OA
ATOM      7  N   UNL     1       4.401  -3.353  -1.684  0.00  0.00    +0.000 N 
ATOM      8  H   UNL     1       4.155  -4.337  -1.572  0.00  0.00    +0.000 HD
ENDROOT
BRANCH   2   9
ATOM      9  C   UNL     1       7.138  -0.868  -0.617  0.00  0.00    +0.000 A 
ATOM     10  C   UNL     1       6.731  -1.492   0.615  0.00  0.00    +0.000 A 
ATOM     11  C   UNL     1       5.670  -2.466   0.613  0.00  0.00    +0.000 A 
ATOM     12  C   UNL     1       5.262  -3.090   1.846  0.00  0.00    +0.000 A 
ATOM     13  C   UNL     1       4.201  -4.064   1.843  0.00  0.00    +0.000 A 
ATOM     14  C   UNL     1       8.199   0.106  -0.615  0.00  0.00    +0.000 A 
BRANCH  14  15
ATOM     15  C   UNL     1       8.629   0.764  -1.916  0.00  0.00    +0.000 A 
ATOM     16  C   UNL     1       9.690   1.738  -1.913  0.00  0.00    +0.000 A 
ATOM     17  C   UNL     1      10.344   2.088  -0.679  0.00  0.00    +0.000 A 
ATOM     18  C   UNL     1      11.405   3.062  -0.677  0.00  0.00    +0.000 A 
ATOM     19  C   UNL     1      12.058   3.412   0.558  0.00  0.00    +0.000 A 
ATOM     20  C   UNL     1       7.976   0.414  -3.150  0.00  0.00    +0.000 A 
ENDBRANCH  14  15
ENDBRANCH   2   9
BRANCH   7  21
ATOM     21  C   UNL     1       5.246  -2.931  -2.810  0.00  0.00    +0.000 C 
ATOM     22  C   UNL     1       4.562  -3.290  -4.119  0.00  0.00    +0.000 C 
ATOM     23  C   UNL     1       3.220  -2.582  -4.200  0.00  0.00    +0.000 C 
ATOM     24  C   UNL     1       3.435  -1.078  -4.136  0.00  0.00    +0.000 C 
ATOM     25  C   UNL     1       6.589  -3.639  -2.730  0.00  0.00    +0.000 C 
ENDBRANCH   7  21
BRANCH   1  27
ATOM     26  N   UNL     1       0.995   0.054   0.084  0.00  0.00    +0.000 NA
ATOM     27  C   UNL     1       2.256   0.054   0.084  0.00  0.00    +0.000 C 
ENDBRANCH   1  27
BRANCH   3  28
ATOM     28  C   UNL     1       4.427  -0.877  -3.316  0.00  0.00    +0.000 C 
BRANCH  28  29
ATOM     29  O   UNL     1       3.173  -0.216  -3.391  0.00  0.00    +0.000 OA
ATOM     30  H   UNL     1       2.598  -0.503  -2.625  0.00  0.00    +0.000 HD
ENDBRANCH  28  29
ENDBRANCH   3  28
TORSDOF 6
