REMARK  Name = 
REMARK  2 active torsions:
REMARK  status: ('A' for Active; 'I' for Inactive)
REMARK    1  A    between atoms: C_4  and  O_5
REMARK    2  A    between atoms: N_9  and  C_10
REMARK                            x       y       z     vdW  Elec       q    Type
REMARK                         _______ _______ _______ _____ _____    ______ ____
ROOT
ATOM      1  O   UNL     1       1.012  -0.065  -0.075  0.00  0.00    +0.000 OA
ATOM      2  C   UNL     1       2.283  -0.065  -0.075  0.00  0.00    +0.000 A 
ATOM      3  C   UNL     1       3.003   0.893   0.723  0.00  0.00    +0.000 A 
ATOM      4  C   UNL     1       2.283   1.852   1.522  0.00  0.00    +0.000 A 
ATOM      5  C   UNL     1       0.843   1.852   1.522  0.00  0.00    +0.000 A 
ATOM      6  S   UNL     1      -0.015   2.993   2.472  0.00  0.00    +0.000 S 
ATOM      7  C   UNL     1      -1.730   2.993   2.472  0.00  0.00    +0.000 A 
ATOM      8  N   UNL     1      -2.465   2.015   1.657  0.00  0.00    +0.000 N 
ATOM      9  N   UNL     1      -2.426   3.919   3.245  0.00  0.00    +0.000 NA
ATOM     10  C   UNL     1       0.123   0.893   0.723  0.00  0.00    +0.000 A 
ATOM     11  N   UNL     1       2.979  -0.992  -0.847  0.00  0.00    +0.000 N 
ATOM     12  H   UNL     1      -1.955   1.336   1.092  0.00  0.00    +0.000 HD
ATOM     13  H   UNL     1       2.469  -1.670  -1.413  0.00  0.00    +0.000 HD
ENDROOT
BRANCH   8  14
ATOM     14  C   UNL     1      -3.935   2.015   1.657  0.00  0.00    +0.000 A 
ATOM     15  C   UNL     1      -4.655   2.973   2.456  0.00  0.00    +0.000 A 
ATOM     16  C   UNL     1      -3.935   3.931   3.254  0.00  0.00    +0.000 A 
ATOM     17  C   UNL     1      -4.655   4.889   4.053  0.00  0.00    +0.000 A 
ATOM     18  F   UNL     1      -3.990   5.774   4.790  0.00  0.00    +0.000 F 
ATOM     19  C   UNL     1      -6.095   4.889   4.053  0.00  0.00    +0.000 A 
ATOM     20 CL   UNL     1      -6.985   6.074   5.039  0.00  0.00    +0.000 Cl
ATOM     21  C   UNL     1      -4.655   1.056   0.859  0.00  0.00    +0.000 A 
ENDBRANCH   8  14
BRANCH   4  22
ATOM     22  O   UNL     1       2.993   2.796   2.309  0.00  0.00    +0.000 OA
ATOM     23  H   UNL     1       3.993   2.796   2.309  0.00  0.00    +0.000 HD
ENDBRANCH   4  22
TORSDOF 2
