REMARK  Name = 
REMARK  9 active torsions:
REMARK  status: ('A' for Active; 'I' for Inactive)
REMARK    1  A    between atoms: C_1  and  N_2
REMARK    2  A    between atoms: C_3  and  C_5
REMARK    3  A    between atoms: C_7  and  C_8
REMARK    4  A    between atoms: C_14  and  C_16
REMARK    5  A    between atoms: C_21  and  O_22
REMARK    6  A    between atoms: O_22  and  C_23
REMARK    7  A    between atoms: C_23  and  C_24
REMARK    8  A    between atoms: N_27  and  C_28
REMARK    9  A    between atoms: C_28  and  C_29
REMARK                            x       y       z     vdW  Elec       q    Type
REMARK                         _______ _______ _______ _____ _____    ______ ____
ROOT
ATOM      1  C   UNL     1      -0.685  -0.534  -2.444  0.00  0.00    +0.000 A 
ATOM      2  S   UNL     1      -1.671  -0.772  -3.826  0.00  0.00    +0.000 S 
ATOM      3  C   UNL     1      -2.086  -2.362  -4.321  0.00  0.00    +0.000 A 
ATOM      4  N   UNL     1      -2.886  -2.555  -5.444  0.00  0.00    +0.000 NA
ATOM      5  C   UNL     1      -0.205  -1.669  -1.697  0.00  0.00    +0.000 A 
ENDROOT
BRANCH   3   6
ATOM      6  C   UNL     1      -1.579  -3.559  -3.533  0.00  0.00    +0.000 A 
ATOM      7  C   UNL     1      -0.751  -3.359  -2.372  0.00  0.00    +0.000 A 
ATOM      8  C   UNL     1      -0.403  -2.024  -1.957  0.00  0.00    +0.000 A 
ATOM      9  N   UNL     1       0.398  -1.831  -0.834  0.00  0.00    +0.000 NA
ATOM     10  C   UNL     1       0.862  -2.928  -0.112  0.00  0.00    +0.000 A 
ATOM     11  N   UNL     1       1.707  -2.723   1.073  0.00  0.00    +0.000 N 
ATOM     12  C   UNL     1       2.062  -1.361   1.497  0.00  0.00    +0.000 C 
ATOM     13  O   UNL     1       2.793  -1.185   2.522  0.00  0.00    +0.000 OA
ATOM     14  C   UNL     1      -1.927  -4.893  -3.948  0.00  0.00    +0.000 A 
ATOM     15  H   UNL     1       2.047  -3.527   1.602  0.00  0.00    +0.000 HD
BRANCH  12  16
ATOM     16  C   UNL     1       1.556  -0.164   0.709  0.00  0.00    +0.000 C 
ATOM     17  C   UNL     1       0.036  -0.164   0.709  0.00  0.00    +0.000 C 
ATOM     18  C   UNL     1       2.062  -0.248  -0.721  0.00  0.00    +0.000 C 
ENDBRANCH  12  16
ENDBRANCH   3   6
BRANCH   1  21
ATOM     19  C   UNL     1       1.017  -0.079  -0.059  0.00  0.00    +0.000 C 
ATOM     20  N   UNL     1       0.527   1.079  -0.820  0.00  0.00    +0.000 N 
ATOM     21  C   UNL     1      -0.318   0.874  -2.006  0.00  0.00    +0.000 C 
ATOM     22  O   UNL     1      -0.742   1.875  -2.664  0.00  0.00    +0.000 OA
ATOM     23  H   UNL     1       0.773   2.024  -0.526  0.00  0.00    +0.000 HD
ENDBRANCH   1  21
BRANCH   5  24
ATOM     24  O   UNL     1       0.611  -1.471  -0.552  0.00  0.00    +0.000 OA
BRANCH  24  25
ATOM     25  C   UNL     1       1.084  -2.590   0.183  0.00  0.00    +0.000 C 
BRANCH  25  26
ATOM     26  C   UNL     1      -0.098  -3.388   0.709  0.00  0.00    +0.000 C 
ATOM     27  C   UNL     1       0.409  -4.585   1.496  0.00  0.00    +0.000 C 
ATOM     28  C   UNL     1       1.253  -4.102   2.664  0.00  0.00    +0.000 C 
ATOM     29  N   UNL     1       0.437  -3.250   3.540  0.00  0.00    +0.000 NA
ATOM     30  C   UNL     1      -0.053  -2.092   2.778  0.00  0.00    +0.000 C 
ATOM     31  C   UNL     1      -0.942  -3.870  -0.460  0.00  0.00    +0.000 C 
BRANCH  29  32
ATOM     32  C   UNL     1       1.253  -2.783   4.670  0.00  0.00    +0.000 C 
BRANCH  32  33
ATOM     33  C   UNL     1       2.435  -1.985   4.145  0.00  0.00    +0.000 A 
ATOM     34  C   UNL     1       3.388  -2.606   3.260  0.00  0.00    +0.000 A 
ATOM     35  C   UNL     1       3.219  -3.983   2.873  0.00  0.00    +0.000 A 
ATOM     36  C   UNL     1       4.171  -4.603   1.988  0.00  0.00    +0.000 A 
ATOM     37 CL   UNL     1       3.964  -6.305   1.510  0.00  0.00    +0.000 Cl
ATOM     38  C   UNL     1       5.292  -3.847   1.491  0.00  0.00    +0.000 A 
ATOM     39  C   UNL     1       2.604  -0.608   4.532  0.00  0.00    +0.000 A 
ENDBRANCH  32  33
ENDBRANCH  29  32
ENDBRANCH  25  26
ENDBRANCH  24  25
ENDBRANCH   5  24
TORSDOF 8
