REMARK  Name = 
REMARK  6 active torsions:
REMARK  status: ('A' for Active; 'I' for Inactive)
REMARK    1  A    between atoms: S_2  and  N_4
REMARK    2  A    between atoms: S_2  and  C_27
REMARK    3  A    between atoms: N_4  and  C_5
REMARK    4  A    between atoms: C_7  and  S_8
REMARK    5  A    between atoms: S_8  and  C_9
REMARK    6  A    between atoms: C_19  and  O_20
REMARK                            x       y       z     vdW  Elec       q    Type
REMARK                         _______ _______ _______ _____ _____    ______ ____
ROOT
ATOM      1  C   UNL     1       4.021   2.411  -0.582  0.00  0.00    +0.000 A 
ATOM      2  C   UNL     1       4.369   2.466   0.815  0.00  0.00    +0.000 A 
ATOM      3  C   UNL     1       3.889   1.452   1.717  0.00  0.00    +0.000 A 
ATOM      4  C   UNL     1       3.061   0.382   1.223  0.00  0.00    +0.000 A 
ATOM      5  C   UNL     1       2.580  -0.633   2.126  0.00  0.00    +0.000 A 
ATOM      6  C   UNL     1       1.752  -1.702   1.632  0.00  0.00    +0.000 A 
ATOM      7  C   UNL     1       1.405  -1.758   0.235  0.00  0.00    +0.000 A 
ATOM      8  C   UNL     1       0.577  -2.827  -0.259  0.00  0.00    +0.000 A 
ATOM      9  C   UNL     1       0.229  -2.883  -1.655  0.00  0.00    +0.000 A 
ATOM     10  C   UNL     1       2.928  -0.577   3.522  0.00  0.00    +0.000 A 
ENDROOT
BRANCH   1  11
ATOM     11  N   UNL     1       3.176   1.319  -1.086  0.00  0.00    +0.000 N 
ATOM     12  H   UNL     1       2.929   1.280  -2.075  0.00  0.00    +0.000 HD
BRANCH  11  14
ATOM     13  O   UNL     1       1.058   0.079   0.017  0.00  0.00    +0.000 OA
ATOM     14  S   UNL     1       2.589   0.079   0.017  0.00  0.00    +0.000 S 
ATOM     15  O   UNL     1       3.099  -1.290  -0.437  0.00  0.00    +0.000 OA
BRANCH  14  16
ATOM     16  C   UNL     1       3.192   0.424   1.688  0.00  0.00    +0.000 A 
ATOM     17  C   UNL     1       4.608   0.477   1.946  0.00  0.00    +0.000 A 
ATOM     18  C   UNL     1       5.544   0.256   0.874  0.00  0.00    +0.000 A 
ATOM     19  C   UNL     1       6.960   0.309   1.132  0.00  0.00    +0.000 A 
ATOM     20  C   UNL     1       7.896   0.088   0.060  0.00  0.00    +0.000 A 
ATOM     21  C   UNL     1       2.256   0.645   2.760  0.00  0.00    +0.000 A 
ENDBRANCH  14  16
ENDBRANCH  11  14
ENDBRANCH   1  11
BRANCH   4  22
ATOM     22  O   UNL     1       2.717   0.328  -0.154  0.00  0.00    +0.000 OA
ATOM     23  H   UNL     1       3.051   1.032  -0.780  0.00  0.00    +0.000 HD
ENDBRANCH   4  22
BRANCH   3  24
ATOM     24  S   UNL     1       4.326   1.521   3.472  0.00  0.00    +0.000 S 
BRANCH  24  25
ATOM     25  C   UNL     1       5.366   2.970   3.778  0.00  0.00    +0.000 A 
ATOM     26  C   UNL     1       5.846   3.245   5.108  0.00  0.00    +0.000 A 
ATOM     27  C   UNL     1       5.498   2.366   6.194  0.00  0.00    +0.000 A 
ATOM     28  C   UNL     1       5.979   2.640   7.524  0.00  0.00    +0.000 A 
ATOM     29  C   UNL     1       5.631   1.761   8.611  0.00  0.00    +0.000 A 
ATOM     30  C   UNL     1       4.803   0.608   8.368  0.00  0.00    +0.000 A 
ATOM     31  C   UNL     1       4.323   0.334   7.038  0.00  0.00    +0.000 A 
ATOM     32  C   UNL     1       3.495  -0.819   6.795  0.00  0.00    +0.000 A 
ATOM     33  N   UNL     1       3.030  -1.084   5.509  0.00  0.00    +0.000 NA
ATOM     34  C   UNL     1       6.111   2.036   9.941  0.00  0.00    +0.000 A 
ENDBRANCH  24  25
ENDBRANCH   3  24
TORSDOF 6
