REMARK  Name = 
REMARK  8 active torsions:
REMARK  status: ('A' for Active; 'I' for Inactive)
REMARK    1  A    between atoms: C_1  and  C_2
REMARK    2  A    between atoms: C_2  and  C_3
REMARK    3  A    between atoms: C_4  and  C_5
REMARK    4  A    between atoms: C_5  and  C_6
REMARK    5  A    between atoms: C_6  and  C_7
REMARK    6  A    between atoms: C_7  and  C_8
REMARK    7  A    between atoms: C_19  and  C_20
REMARK    8  A    between atoms: C_23  and  O_24
REMARK                            x       y       z     vdW  Elec       q    Type
REMARK                         _______ _______ _______ _____ _____    ______ ____
ROOT
ATOM      1  C   UNL     1       2.528   0.199   4.767  0.00  0.00    +0.000 C 
ATOM      2  C   UNL     1       3.795   0.616   5.496  0.00  0.00    +0.000 C 
ATOM      3  C   UNL     1       1.654   1.420   4.530  0.00  0.00    +0.000 C 
ATOM      4  C   UNL     1       1.326   1.785   3.262  0.00  0.00    +0.000 C 
ATOM      5  C   UNL     1       0.452   3.006   3.025  0.00  0.00    +0.000 A 
ATOM      6  C   UNL     1      -0.028   3.776   4.143  0.00  0.00    +0.000 A 
ATOM      7  C   UNL     1       0.320   3.389   5.486  0.00  0.00    +0.000 A 
ATOM      8  C   UNL     1       1.148   2.232   5.711  0.00  0.00    +0.000 A 
ATOM      9  C   UNL     1       1.628   1.462   4.592  0.00  0.00    +0.000 A 
ATOM     10  C   UNL     1       0.104   3.393   1.682  0.00  0.00    +0.000 A 
ATOM     11  O   UNL     1       1.818  -0.746   5.554  0.00  0.00    +0.000 OA
ATOM     12  O   UNL     1       1.491   1.851   7.035  0.00  0.00    +0.000 OA
ATOM     13  C   UNL     1       2.307   0.710   7.256  0.00  0.00    +0.000 C 
ATOM     14  C   UNL     1       3.650   0.907   6.571  0.00  0.00    +0.000 C 
ATOM     15  C   UNL     1      -0.187   4.202   6.667  0.00  0.00    +0.000 C 
ATOM     16  O   UNL     1      -0.918   5.222   6.468  0.00  0.00    +0.000 OA
ENDROOT
BRANCH  13  17
ATOM     17  C   UNL     1       2.522   0.523   8.749  0.00  0.00    +0.000 A 
ATOM     18  C   UNL     1       1.381   0.318   9.604  0.00  0.00    +0.000 A 
ATOM     19  C   UNL     1       0.059   0.257   9.037  0.00  0.00    +0.000 A 
ATOM     20  C   UNL     1      -1.082   0.052   9.892  0.00  0.00    +0.000 A 
ATOM     21  C   UNL     1      -0.901  -0.091  11.313  0.00  0.00    +0.000 A 
ATOM     22  C   UNL     1       3.845   0.585   9.316  0.00  0.00    +0.000 A 
BRANCH  20  23
ATOM     23  O   UNL     1      -2.386  -0.008   9.333  0.00  0.00    +0.000 OA
ATOM     24  H   UNL     1      -2.512   0.091   8.346  0.00  0.00    +0.000 HD
ENDBRANCH  20  23
ENDBRANCH  13  17
BRANCH   1  25
ATOM     25  C   UNL     1       2.895  -0.428   3.432  0.00  0.00    +0.000 C 
BRANCH  25  26
ATOM     26  C   UNL     1       1.629  -0.846   2.703  0.00  0.00    +0.000 C 
BRANCH  26  30
ATOM     27  C   UNL     1       0.933  -0.072   0.017  0.00  0.00    +0.000 C 
ATOM     28  C   UNL     1       0.426   0.741   1.197  0.00  0.00    +0.000 C 
ATOM     29  C   UNL     1      -0.448   1.961   0.961  0.00  0.00    +0.000 C 
ATOM     30  C   UNL     1       0.755   0.375   2.466  0.00  0.00    +0.000 C 
ENDBRANCH  26  30
ENDBRANCH  25  26
ENDBRANCH   1  25
TORSDOF 5
