REMARK  Name = 
REMARK  7 active torsions:
REMARK  status: ('A' for Active; 'I' for Inactive)
REMARK    1  A    between atoms: C_1  and  C_2
REMARK    2  A    between atoms: N_4  and  C_5
REMARK    3  A    between atoms: C_14  and  C_15
REMARK    4  A    between atoms: N_17  and  C_18
REMARK    5  A    between atoms: C_20  and  N_21
REMARK    6  A    between atoms: N_24  and  C_25
REMARK    7  A    between atoms: C_29  and  C_30
REMARK                            x       y       z     vdW  Elec       q    Type
REMARK                         _______ _______ _______ _____ _____    ______ ____
ROOT
ATOM      1  C   UNL     1      -5.491   0.526  -0.724  0.00  0.00    +0.000 C 
ATOM      2  O   UNL     1      -6.305  -0.345  -1.164  0.00  0.00    +0.000 OA
ATOM      3  N   UNL     1      -5.990   1.672   0.051  0.00  0.00    +0.000 N 
ATOM      4  H   UNL     1      -6.988   1.767   0.235  0.00  0.00    +0.000 HD
ENDROOT
BRANCH   1  12
ATOM      5  C   UNL     1       1.006  -0.099   0.013  0.00  0.00    +0.000 C 
ATOM      6  C   UNL     1       0.499  -1.450   0.491  0.00  0.00    +0.000 C 
ATOM      7  C   UNL     1      -1.021  -1.450   0.491  0.00  0.00    +0.000 C 
ATOM      8  N   UNL     1      -1.511  -1.197  -0.872  0.00  0.00    +0.000 N 
ATOM      9  C   UNL     1      -1.156   0.052  -1.560  0.00  0.00    +0.000 C 
ATOM     10  C   UNL     1      -1.671   1.237  -0.759  0.00  0.00    +0.000 A 
ATOM     11  C   UNL     1      -3.081   1.371  -0.499  0.00  0.00    +0.000 A 
ATOM     12  C   UNL     1      -4.003   0.384  -0.998  0.00  0.00    +0.000 A 
ATOM     13  C   UNL     1      -3.515  -0.738  -1.758  0.00  0.00    +0.000 A 
ATOM     14  C   UNL     1      -2.105  -0.873  -2.018  0.00  0.00    +0.000 A 
ATOM     15  C   UNL     1       1.006  -1.712   1.900  0.00  0.00    +0.000 A 
BRANCH   8  16
ATOM     16  C   UNL     1      -2.356  -2.193  -1.546  0.00  0.00    +0.000 A 
ATOM     17  C   UNL     1      -2.704  -3.417  -0.871  0.00  0.00    +0.000 A 
ATOM     18  N   UNL     1      -2.240  -3.657   0.420  0.00  0.00    +0.000 NA
ATOM     19  C   UNL     1      -1.439  -2.713   1.058  0.00  0.00    +0.000 A 
ATOM     20  N   UNL     1      -1.103  -1.529   0.406  0.00  0.00    +0.000 NA
ATOM     21  C   UNL     1      -2.836  -1.945  -2.881  0.00  0.00    +0.000 A 
ENDBRANCH   8  16
ENDBRANCH   1  12
BRANCH   3  22
ATOM     22  C   UNL     1      -5.049   2.680   0.561  0.00  0.00    +0.000 A 
ATOM     23  C   UNL     1      -3.638   2.545   0.301  0.00  0.00    +0.000 A 
ATOM     24  C   UNL     1      -3.150   1.423  -0.459  0.00  0.00    +0.000 A 
ATOM     25  C   UNL     1      -4.072   0.435  -0.958  0.00  0.00    +0.000 A 
ATOM     26  C   UNL     1      -5.482   0.570  -0.698  0.00  0.00    +0.000 A 
ATOM     27  C   UNL     1      -5.537   3.802   1.320  0.00  0.00    +0.000 A 
BRANCH  24  28
ATOM     28  N   UNL     1      -1.711   1.285  -0.724  0.00  0.00    +0.000 N 
ATOM     29  C   UNL     1      -0.770   2.293  -0.214  0.00  0.00    +0.000 C 
ATOM     30  C   UNL     1      -1.122   3.653  -0.794  0.00  0.00    +0.000 C 
ATOM     31  N   UNL     1      -2.490   4.016  -0.397  0.00  0.00    +0.000 NA
ATOM     32  C   UNL     1      -2.830   5.331  -0.958  0.00  0.00    +0.000 C 
ATOM     33  C   UNL     1      -3.431   3.008  -0.907  0.00  0.00    +0.000 C 
ATOM     34  C   UNL     1      -1.213   0.140  -1.499  0.00  0.00    +0.000 C 
ENDBRANCH  24  28
BRANCH  26  35
ATOM     35  C   UNL     1      -5.998   1.754   0.104  0.00  0.00    +0.000 C 
ATOM     36  F   UNL     1      -5.447   1.744   1.314  0.00  0.00    +0.000 F 
ATOM     37  F   UNL     1      -5.676   2.885  -0.519  0.00  0.00    +0.000 F 
ATOM     38  F   UNL     1      -7.320   1.671   0.217  0.00  0.00    +0.000 F 
ENDBRANCH  26  35
ENDBRANCH   3  22
TORSDOF 5
