REMARK  Name = 
REMARK  6 active torsions:
REMARK  status: ('A' for Active; 'I' for Inactive)
REMARK    1  A    between atoms: C_1  and  C_2
REMARK    2  A    between atoms: C_5  and  C_6
REMARK    3  A    between atoms: N_8  and  N_9
REMARK    4  A    between atoms: N_9  and  C_10
REMARK    5  A    between atoms: C_10  and  N_12
REMARK    6  A    between atoms: C_13  and  C_15
REMARK                            x       y       z     vdW  Elec       q    Type
REMARK                         _______ _______ _______ _____ _____    ______ ____
ROOT
ATOM      1  C   UNL     1       3.502  -3.030  -1.856  0.00  0.00    +0.000 C 
ATOM      2  S   UNL     1       3.111  -1.700  -2.694  0.00  0.00    +0.000 S 
ENDROOT
BRANCH   1   3
ATOM      3  N   UNL     1       4.348  -4.064  -2.470  0.00  0.00    +0.000 N 
ATOM      4  C   UNL     1       4.703  -5.271  -1.709  0.00  0.00    +0.000 C 
ATOM      5  O   UNL     1       5.433  -6.165  -2.240  0.00  0.00    +0.000 OA
ATOM      6  H   UNL     1       4.688  -3.945  -3.424  0.00  0.00    +0.000 HD
BRANCH   4   7
ATOM      7  C   UNL     1       4.196  -5.449  -0.287  0.00  0.00    +0.000 A 
ATOM      8  C   UNL     1       4.544  -6.631   0.459  0.00  0.00    +0.000 A 
ATOM      9  C   UNL     1       5.372  -7.644  -0.143  0.00  0.00    +0.000 A 
ATOM     10  C   UNL     1       5.720  -8.826   0.602  0.00  0.00    +0.000 A 
ATOM     11 CL   UNL     1       6.743 -10.078  -0.141  0.00  0.00    +0.000 Cl
ATOM     12  C   UNL     1       5.240  -8.995   1.950  0.00  0.00    +0.000 A 
ATOM     13  C   UNL     1       3.368  -4.436   0.315  0.00  0.00    +0.000 A 
ATOM     14 CL   UNL     1       2.938  -2.975  -0.607  0.00  0.00    +0.000 Cl
ENDBRANCH   4   7
ENDBRANCH   1   3
BRANCH   1  15
ATOM     15  N   UNL     1       3.012  -3.202  -0.481  0.00  0.00    +0.000 N 
ATOM     16  H   UNL     1       2.426  -2.485  -0.054  0.00  0.00    +0.000 HD
BRANCH  15  19
ATOM     17  C   UNL     1       2.866  -4.540   1.630  0.00  0.00    +0.000 C 
ATOM     18  O   UNL     1       3.173  -5.583   2.288  0.00  0.00    +0.000 OA
ATOM     19  N   UNL     1       3.356  -4.368   0.255  0.00  0.00    +0.000 N 
ATOM     20  H   UNL     1       3.942  -5.085  -0.172  0.00  0.00    +0.000 HD
BRANCH  17  25
ATOM     21  C   UNL     1       0.974   0.085  -0.047  0.00  0.00    +0.000 C 
ATOM     22  C   UNL     1       0.468  -0.094   1.375  0.00  0.00    +0.000 A 
ATOM     23  C   UNL     1       0.816  -1.276   2.121  0.00  0.00    +0.000 A 
ATOM     24  C   UNL     1       1.644  -2.289   1.519  0.00  0.00    +0.000 A 
ATOM     25  C   UNL     1       1.992  -3.471   2.265  0.00  0.00    +0.000 A 
ATOM     26  C   UNL     1       1.512  -3.640   3.612  0.00  0.00    +0.000 A 
ATOM     27  C   UNL     1      -0.360   0.920   1.977  0.00  0.00    +0.000 A 
ENDBRANCH  17  25
ENDBRANCH  15  19
ENDBRANCH   1  15
TORSDOF 5
