MODEL 1
REMARK VINA RESULT:    -6.136      0.000      0.000
REMARK INTER + INTRA:         -10.036
REMARK INTER:                  -7.930
REMARK INTRA:                  -2.106
REMARK UNBOUND:                -2.106
REMARK  Name = 
REMARK  6 active torsions:
REMARK  status: ('A' for Active; 'I' for Inactive)
REMARK    1  A    between atoms: C_1  and  C_2
REMARK    2  A    between atoms: C_6  and  C_7
REMARK    3  A    between atoms: N_9  and  C_10
REMARK    4  A    between atoms: C_10  and  N_12
REMARK    5  A    between atoms: N_12  and  N_13
REMARK    6  A    between atoms: C_14  and  C_16
REMARK                            x       y       z     vdW  Elec       q    Type
REMARK                         _______ _______ _______ _____ _____    ______ ____
ROOT
ATOM      1  C   UNL     1      31.887  -7.437  28.644  0.00  0.00    +0.000 C 
ATOM      2  S   UNL     1      31.658  -7.841  30.196  0.00  0.00    +0.000 S 
ENDROOT
BRANCH   1   5
ATOM      3  C   UNL     1      33.613  -8.786  27.347  0.00  0.00    +0.000 C 
ATOM      4  O   UNL     1      34.769  -8.886  26.828  0.00  0.00    +0.000 OA
ATOM      5  N   UNL     1      33.224  -7.552  28.045  0.00  0.00    +0.000 N 
ATOM      6  H   UNL     1      33.881  -6.776  28.113  0.00  0.00    +0.000 HD
BRANCH   3  12
ATOM      7  C   UNL     1      32.361  -7.318  22.746  0.00  0.00    +0.000 C 
ATOM      8  C   UNL     1      31.380  -8.475  22.644  0.00  0.00    +0.000 A 
ATOM      9  C   UNL     1      31.229  -9.390  23.746  0.00  0.00    +0.000 A 
ATOM     10  C   UNL     1      32.005  -9.209  24.945  0.00  0.00    +0.000 A 
ATOM     11  C   UNL     1      31.854 -10.124  26.047  0.00  0.00    +0.000 A 
ATOM     12  C   UNL     1      32.632  -9.943  27.245  0.00  0.00    +0.000 A 
ATOM     13  C   UNL     1      30.602  -8.656  21.445  0.00  0.00    +0.000 A 
ENDBRANCH   3  12
ENDBRANCH   1   5
BRANCH   1  14
ATOM     14  N   UNL     1      30.757  -6.954  27.836  0.00  0.00    +0.000 N 
ATOM     15  H   UNL     1      30.869  -6.826  26.830  0.00  0.00    +0.000 HD
BRANCH  14  16
ATOM     16  N   UNL     1      29.513  -6.667  28.455  0.00  0.00    +0.000 N 
ATOM     17  C   UNL     1      28.365  -7.562  28.248  0.00  0.00    +0.000 C 
ATOM     18  O   UNL     1      27.250  -7.305  28.802  0.00  0.00    +0.000 OA
ATOM     19  H   UNL     1      29.415  -5.839  29.043  0.00  0.00    +0.000 HD
BRANCH  17  20
ATOM     20  C   UNL     1      28.511  -8.795  27.372  0.00  0.00    +0.000 A 
ATOM     21  C   UNL     1      28.423  -8.674  25.939  0.00  0.00    +0.000 A 
ATOM     22  C   UNL     1      28.196  -7.386  25.337  0.00  0.00    +0.000 A 
ATOM     23  C   UNL     1      28.108  -7.266  23.904  0.00  0.00    +0.000 A 
ATOM     24  C   UNL     1      27.882  -5.978  23.303  0.00  0.00    +0.000 A 
ATOM     25  C   UNL     1      28.738 -10.083  27.974  0.00  0.00    +0.000 A 
ATOM     26 CL   UNL     1      28.846 -10.231  29.745  0.00  0.00    +0.000 Cl
ENDBRANCH  17  20
ENDBRANCH  14  16
ENDBRANCH   1  14
TORSDOF 5
ENDMDL
MODEL 2
REMARK VINA RESULT:    -6.051     19.320     22.037
REMARK INTER + INTRA:          -9.926
REMARK INTER:                  -8.840
REMARK INTRA:                  -1.086
REMARK UNBOUND:                -2.106
REMARK  Name = 
REMARK  6 active torsions:
REMARK  status: ('A' for Active; 'I' for Inactive)
REMARK    1  A    between atoms: C_1  and  C_2
REMARK    2  A    between atoms: C_6  and  C_7
REMARK    3  A    between atoms: N_9  and  C_10
REMARK    4  A    between atoms: C_10  and  N_12
REMARK    5  A    between atoms: N_12  and  N_13
REMARK    6  A    between atoms: C_14  and  C_16
REMARK                            x       y       z     vdW  Elec       q    Type
REMARK                         _______ _______ _______ _____ _____    ______ ____
ROOT
ATOM      1  C   UNL     1      10.604   4.002  28.751  0.00  0.00    +0.000 C 
ATOM      2  S   UNL     1       9.547   4.513  29.868  0.00  0.00    +0.000 S 
ENDROOT
BRANCH   1   5
ATOM      3  C   UNL     1       9.711   2.982  26.596  0.00  0.00    +0.000 C 
ATOM      4  O   UNL     1       9.432   3.089  25.361  0.00  0.00    +0.000 OA
ATOM      5  N   UNL     1      10.281   4.126  27.322  0.00  0.00    +0.000 N 
ATOM      6  H   UNL     1      10.452   5.005  26.836  0.00  0.00    +0.000 HD
BRANCH   3  12
ATOM      7  C   UNL     1      13.961   1.129  24.754  0.00  0.00    +0.000 C 
ATOM      8  C   UNL     1      13.705  -0.181  25.480  0.00  0.00    +0.000 A 
ATOM      9  C   UNL     1      12.520  -0.339  26.285  0.00  0.00    +0.000 A 
ATOM     10  C   UNL     1      11.579   0.745  26.401  0.00  0.00    +0.000 A 
ATOM     11  C   UNL     1      10.395   0.588  27.206  0.00  0.00    +0.000 A 
ATOM     12  C   UNL     1       9.454   1.672  27.322  0.00  0.00    +0.000 A 
ATOM     13  C   UNL     1      14.645  -1.266  25.363  0.00  0.00    +0.000 A 
ENDBRANCH   3  12
ENDBRANCH   1   5
BRANCH   1  14
ATOM     14  N   UNL     1      11.885   3.412  29.167  0.00  0.00    +0.000 N 
ATOM     15  H   UNL     1      11.897   2.539  29.694  0.00  0.00    +0.000 HD
BRANCH  14  16
ATOM     16  N   UNL     1      13.105   4.057  28.834  0.00  0.00    +0.000 N 
ATOM     17  C   UNL     1      13.846   4.802  29.862  0.00  0.00    +0.000 C 
ATOM     18  O   UNL     1      14.938   5.381  29.564  0.00  0.00    +0.000 OA
ATOM     19  H   UNL     1      13.466   4.004  27.882  0.00  0.00    +0.000 HD
BRANCH  17  20
ATOM     20  C   UNL     1      13.307   4.881  31.281  0.00  0.00    +0.000 A 
ATOM     21  C   UNL     1      13.626   3.847  32.230  0.00  0.00    +0.000 A 
ATOM     22  C   UNL     1      14.455   2.737  31.836  0.00  0.00    +0.000 A 
ATOM     23  C   UNL     1      14.773   1.703  32.787  0.00  0.00    +0.000 A 
ATOM     24  C   UNL     1      15.603   0.594  32.392  0.00  0.00    +0.000 A 
ATOM     25  C   UNL     1      12.478   5.991  31.675  0.00  0.00    +0.000 A 
ATOM     26 CL   UNL     1      12.084   7.269  30.500  0.00  0.00    +0.000 Cl
ENDBRANCH  17  20
ENDBRANCH  14  16
ENDBRANCH   1  14
TORSDOF 5
ENDMDL
MODEL 3
REMARK VINA RESULT:    -5.909      4.202      5.981
REMARK INTER + INTRA:          -9.742
REMARK INTER:                  -8.467
REMARK INTRA:                  -1.275
REMARK UNBOUND:                -2.106
REMARK  Name = 
REMARK  6 active torsions:
REMARK  status: ('A' for Active; 'I' for Inactive)
REMARK    1  A    between atoms: C_1  and  C_2
REMARK    2  A    between atoms: C_6  and  C_7
REMARK    3  A    between atoms: N_9  and  C_10
REMARK    4  A    between atoms: C_10  and  N_12
REMARK    5  A    between atoms: N_12  and  N_13
REMARK    6  A    between atoms: C_14  and  C_16
REMARK                            x       y       z     vdW  Elec       q    Type
REMARK                         _______ _______ _______ _____ _____    ______ ____
ROOT
ATOM      1  C   UNL     1      26.426 -10.771  28.629  0.00  0.00    +0.000 C 
ATOM      2  S   UNL     1      27.686 -11.375  27.810  0.00  0.00    +0.000 S 
ENDROOT
BRANCH   1   5
ATOM      3  C   UNL     1      26.903  -8.786  30.151  0.00  0.00    +0.000 C 
ATOM      4  O   UNL     1      27.073  -8.308  31.317  0.00  0.00    +0.000 OA
ATOM      5  N   UNL     1      26.623 -10.219  29.978  0.00  0.00    +0.000 N 
ATOM      6  H   UNL     1      26.566 -10.830  30.792  0.00  0.00    +0.000 HD
BRANCH   3  12
ATOM      7  C   UNL     1      31.862  -8.577  30.651  0.00  0.00    +0.000 C 
ATOM      8  C   UNL     1      31.946  -7.666  29.438  0.00  0.00    +0.000 A 
ATOM      9  C   UNL     1      30.746  -7.287  28.737  0.00  0.00    +0.000 A 
ATOM     10  C   UNL     1      29.467  -7.770  29.187  0.00  0.00    +0.000 A 
ATOM     11  C   UNL     1      28.266  -7.392  28.487  0.00  0.00    +0.000 A 
ATOM     12  C   UNL     1      26.987  -7.876  28.937  0.00  0.00    +0.000 A 
ATOM     13  C   UNL     1      33.226  -7.182  28.987  0.00  0.00    +0.000 A 
ENDBRANCH   3  12
ENDBRANCH   1   5
BRANCH   1  14
ATOM     14  N   UNL     1      25.085 -10.776  28.026  0.00  0.00    +0.000 N 
ATOM     15  H   UNL     1      24.592 -11.658  27.888  0.00  0.00    +0.000 HD
BRANCH  14  16
ATOM     16  N   UNL     1      24.478  -9.554  27.636  0.00  0.00    +0.000 N 
ATOM     17  C   UNL     1      24.351  -9.219  26.210  0.00  0.00    +0.000 C 
ATOM     18  O   UNL     1      23.807  -8.124  25.860  0.00  0.00    +0.000 OA
ATOM     19  H   UNL     1      24.130  -8.909  28.345  0.00  0.00    +0.000 HD
BRANCH  17  20
ATOM     20  C   UNL     1      24.870 -10.180  25.154  0.00  0.00    +0.000 A 
ATOM     21  C   UNL     1      26.178  -9.986  24.584  0.00  0.00    +0.000 A 
ATOM     22  C   UNL     1      26.995  -8.880  25.015  0.00  0.00    +0.000 A 
ATOM     23  C   UNL     1      28.303  -8.686  24.444  0.00  0.00    +0.000 A 
ATOM     24  C   UNL     1      29.119  -7.581  24.875  0.00  0.00    +0.000 A 
ATOM     25  C   UNL     1      24.054 -11.286  24.723  0.00  0.00    +0.000 A 
ATOM     26 CL   UNL     1      22.436 -11.525  25.428  0.00  0.00    +0.000 Cl
ENDBRANCH  17  20
ENDBRANCH  14  16
ENDBRANCH   1  14
TORSDOF 5
ENDMDL
MODEL 4
REMARK VINA RESULT:    -5.890      2.510      3.653
REMARK INTER + INTRA:          -9.717
REMARK INTER:                  -7.950
REMARK INTRA:                  -1.767
REMARK UNBOUND:                -2.106
REMARK  Name = 
REMARK  6 active torsions:
REMARK  status: ('A' for Active; 'I' for Inactive)
REMARK    1  A    between atoms: C_1  and  C_2
REMARK    2  A    between atoms: C_6  and  C_7
REMARK    3  A    between atoms: N_9  and  C_10
REMARK    4  A    between atoms: C_10  and  N_12
REMARK    5  A    between atoms: N_12  and  N_13
REMARK    6  A    between atoms: C_14  and  C_16
REMARK                            x       y       z     vdW  Elec       q    Type
REMARK                         _______ _______ _______ _____ _____    ______ ____
ROOT
ATOM      1  C   UNL     1      30.313  -7.081  27.655  0.00  0.00    +0.000 C 
ATOM      2  S   UNL     1      28.893  -7.281  28.407  0.00  0.00    +0.000 S 
ENDROOT
BRANCH   1   5
ATOM      3  C   UNL     1      32.356  -7.868  28.955  0.00  0.00    +0.000 C 
ATOM      4  O   UNL     1      33.401  -7.605  29.629  0.00  0.00    +0.000 OA
ATOM      5  N   UNL     1      31.522  -6.776  28.435  0.00  0.00    +0.000 N 
ATOM      6  H   UNL     1      31.780  -5.806  28.615  0.00  0.00    +0.000 HD
BRANCH   3  12
ATOM      7  C   UNL     1      35.049  -7.801  24.755  0.00  0.00    +0.000 C 
ATOM      8  C   UNL     1      34.664  -9.247  24.485  0.00  0.00    +0.000 A 
ATOM      9  C   UNL     1      33.809  -9.948  25.408  0.00  0.00    +0.000 A 
ATOM     10  C   UNL     1      33.317  -9.280  26.585  0.00  0.00    +0.000 A 
ATOM     11  C   UNL     1      32.462  -9.982  27.507  0.00  0.00    +0.000 A 
ATOM     12  C   UNL     1      31.971  -9.314  28.685  0.00  0.00    +0.000 A 
ATOM     13  C   UNL     1      35.155  -9.915  23.307  0.00  0.00    +0.000 A 
ENDBRANCH   3  12
ENDBRANCH   1   5
BRANCH   1  14
ATOM     14  N   UNL     1      30.394  -7.204  26.192  0.00  0.00    +0.000 N 
ATOM     15  H   UNL     1      31.303  -7.294  25.738  0.00  0.00    +0.000 HD
BRANCH  14  16
ATOM     16  N   UNL     1      29.208  -7.197  25.412  0.00  0.00    +0.000 N 
ATOM     17  C   UNL     1      29.128  -8.009  24.189  0.00  0.00    +0.000 C 
ATOM     18  O   UNL     1      28.066  -8.003  23.491  0.00  0.00    +0.000 OA
ATOM     19  H   UNL     1      28.412  -6.629  25.701  0.00  0.00    +0.000 HD
BRANCH  17  20
ATOM     20  C   UNL     1      30.315  -8.856  23.760  0.00  0.00    +0.000 A 
ATOM     21  C   UNL     1      31.419  -8.248  23.064  0.00  0.00    +0.000 A 
ATOM     22  C   UNL     1      31.399  -6.837  22.774  0.00  0.00    +0.000 A 
ATOM     23  C   UNL     1      32.504  -6.229  22.078  0.00  0.00    +0.000 A 
ATOM     24  C   UNL     1      32.484  -4.819  21.790  0.00  0.00    +0.000 A 
ATOM     25  C   UNL     1      30.334 -10.267  24.049  0.00  0.00    +0.000 A 
ATOM     26 CL   UNL     1      28.968 -11.018  24.909  0.00  0.00    +0.000 Cl
ENDBRANCH  17  20
ENDBRANCH  14  16
ENDBRANCH   1  14
TORSDOF 5
ENDMDL
MODEL 5
REMARK VINA RESULT:    -5.859     18.584     20.595
REMARK INTER + INTRA:          -9.677
REMARK INTER:                  -8.849
REMARK INTRA:                  -0.828
REMARK UNBOUND:                -2.106
REMARK  Name = 
REMARK  6 active torsions:
REMARK  status: ('A' for Active; 'I' for Inactive)
REMARK    1  A    between atoms: C_1  and  C_2
REMARK    2  A    between atoms: C_6  and  C_7
REMARK    3  A    between atoms: N_9  and  C_10
REMARK    4  A    between atoms: C_10  and  N_12
REMARK    5  A    between atoms: N_12  and  N_13
REMARK    6  A    between atoms: C_14  and  C_16
REMARK                            x       y       z     vdW  Elec       q    Type
REMARK                         _______ _______ _______ _____ _____    ______ ____
ROOT
ATOM      1  C   UNL     1      14.009   1.697  26.896  0.00  0.00    +0.000 C 
ATOM      2  S   UNL     1      12.610   2.200  27.539  0.00  0.00    +0.000 S 
ENDROOT
BRANCH   1   5
ATOM      3  C   UNL     1      16.080   2.567  28.094  0.00  0.00    +0.000 C 
ATOM      4  O   UNL     1      17.086   2.362  28.843  0.00  0.00    +0.000 OA
ATOM      5  N   UNL     1      15.173   1.459  27.762  0.00  0.00    +0.000 N 
ATOM      6  H   UNL     1      15.351   0.526  28.132  0.00  0.00    +0.000 HD
BRANCH   3  12
ATOM      7  C   UNL     1      13.460   3.688  32.189  0.00  0.00    +0.000 C 
ATOM      8  C   UNL     1      13.194   5.080  31.639  0.00  0.00    +0.000 A 
ATOM      9  C   UNL     1      13.724   5.459  30.354  0.00  0.00    +0.000 A 
ATOM     10  C   UNL     1      14.504   4.519  29.591  0.00  0.00    +0.000 A 
ATOM     11  C   UNL     1      15.034   4.898  28.306  0.00  0.00    +0.000 A 
ATOM     12  C   UNL     1      15.814   3.958  27.543  0.00  0.00    +0.000 A 
ATOM     13  C   UNL     1      12.414   6.020  32.401  0.00  0.00    +0.000 A 
ENDBRANCH   3  12
ENDBRANCH   1   5
BRANCH   1  14
ATOM     14  N   UNL     1      14.116   1.479  25.445  0.00  0.00    +0.000 N 
ATOM     15  H   UNL     1      13.961   2.255  24.801  0.00  0.00    +0.000 HD
BRANCH  14  16
ATOM     16  N   UNL     1      14.435   0.191  24.942  0.00  0.00    +0.000 N 
ATOM     17  C   UNL     1      13.369  -0.683  24.432  0.00  0.00    +0.000 C 
ATOM     18  O   UNL     1      13.654  -1.837  23.982  0.00  0.00    +0.000 OA
ATOM     19  H   UNL     1      15.404  -0.128  24.935  0.00  0.00    +0.000 HD
BRANCH  17  20
ATOM     20  C   UNL     1      11.925  -0.208  24.443  0.00  0.00    +0.000 A 
ATOM     21  C   UNL     1      11.412   0.559  23.337  0.00  0.00    +0.000 A 
ATOM     22  C   UNL     1      12.265   0.874  22.221  0.00  0.00    +0.000 A 
ATOM     23  C   UNL     1      11.751   1.641  21.115  0.00  0.00    +0.000 A 
ATOM     24  C   UNL     1      12.604   1.956  19.999  0.00  0.00    +0.000 A 
ATOM     25  C   UNL     1      11.072  -0.524  25.559  0.00  0.00    +0.000 A 
ATOM     26 CL   UNL     1      11.708  -1.470  26.926  0.00  0.00    +0.000 Cl
ENDBRANCH  17  20
ENDBRANCH  14  16
ENDBRANCH   1  14
TORSDOF 5
ENDMDL
MODEL 6
REMARK VINA RESULT:    -5.826     18.678     20.855
REMARK INTER + INTRA:          -9.635
REMARK INTER:                  -8.812
REMARK INTRA:                  -0.824
REMARK UNBOUND:                -2.106
REMARK  Name = 
REMARK  6 active torsions:
REMARK  status: ('A' for Active; 'I' for Inactive)
REMARK    1  A    between atoms: C_1  and  C_2
REMARK    2  A    between atoms: C_6  and  C_7
REMARK    3  A    between atoms: N_9  and  C_10
REMARK    4  A    between atoms: C_10  and  N_12
REMARK    5  A    between atoms: N_12  and  N_13
REMARK    6  A    between atoms: C_14  and  C_16
REMARK                            x       y       z     vdW  Elec       q    Type
REMARK                         _______ _______ _______ _____ _____    ______ ____
ROOT
ATOM      1  C   UNL     1      14.029   1.770  26.905  0.00  0.00    +0.000 C 
ATOM      2  S   UNL     1      12.627   2.250  27.561  0.00  0.00    +0.000 S 
ENDROOT
BRANCH   1   5
ATOM      3  C   UNL     1      16.116   2.593  28.108  0.00  0.00    +0.000 C 
ATOM      4  O   UNL     1      17.120   2.363  28.853  0.00  0.00    +0.000 OA
ATOM      5  N   UNL     1      15.190   1.504  27.767  0.00  0.00    +0.000 N 
ATOM      6  H   UNL     1      15.353   0.564  28.126  0.00  0.00    +0.000 HD
BRANCH   3  12
ATOM      7  C   UNL     1      13.448   3.687  32.179  0.00  0.00    +0.000 C 
ATOM      8  C   UNL     1      13.204   5.089  31.643  0.00  0.00    +0.000 A 
ATOM      9  C   UNL     1      13.757   5.479  30.371  0.00  0.00    +0.000 A 
ATOM     10  C   UNL     1      14.538   4.542  29.607  0.00  0.00    +0.000 A 
ATOM     11  C   UNL     1      15.091   4.932  28.335  0.00  0.00    +0.000 A 
ATOM     12  C   UNL     1      15.873   3.994  27.572  0.00  0.00    +0.000 A 
ATOM     13  C   UNL     1      12.422   6.026  32.407  0.00  0.00    +0.000 A 
ENDBRANCH   3  12
ENDBRANCH   1   5
BRANCH   1  14
ATOM     14  N   UNL     1      14.140   1.603  25.448  0.00  0.00    +0.000 N 
ATOM     15  H   UNL     1      14.098   2.418  24.837  0.00  0.00    +0.000 HD
BRANCH  14  16
ATOM     16  N   UNL     1      14.307   0.307  24.894  0.00  0.00    +0.000 N 
ATOM     17  C   UNL     1      13.196  -0.333  24.175  0.00  0.00    +0.000 C 
ATOM     18  O   UNL     1      13.344  -1.494  23.678  0.00  0.00    +0.000 OA
ATOM     19  H   UNL     1      15.197  -0.180  24.995  0.00  0.00    +0.000 HD
BRANCH  17  20
ATOM     20  C   UNL     1      11.869   0.393  24.025  0.00  0.00    +0.000 A 
ATOM     21  C   UNL     1      10.834   0.212  25.010  0.00  0.00    +0.000 A 
ATOM     22  C   UNL     1      11.056  -0.656  26.137  0.00  0.00    +0.000 A 
ATOM     23  C   UNL     1      10.021  -0.836  27.122  0.00  0.00    +0.000 A 
ATOM     24  C   UNL     1      10.243  -1.703  28.250  0.00  0.00    +0.000 A 
ATOM     25  C   UNL     1      11.647   1.261  22.897  0.00  0.00    +0.000 A 
ATOM     26 CL   UNL     1      12.926   1.483  21.679  0.00  0.00    +0.000 Cl
ENDBRANCH  17  20
ENDBRANCH  14  16
ENDBRANCH   1  14
TORSDOF 5
ENDMDL
MODEL 7
REMARK VINA RESULT:    -5.806      6.221      9.835
REMARK INTER + INTRA:          -9.609
REMARK INTER:                  -9.492
REMARK INTRA:                  -0.117
REMARK UNBOUND:                -2.106
REMARK  Name = 
REMARK  6 active torsions:
REMARK  status: ('A' for Active; 'I' for Inactive)
REMARK    1  A    between atoms: C_1  and  C_2
REMARK    2  A    between atoms: C_6  and  C_7
REMARK    3  A    between atoms: N_9  and  C_10
REMARK    4  A    between atoms: C_10  and  N_12
REMARK    5  A    between atoms: N_12  and  N_13
REMARK    6  A    between atoms: C_14  and  C_16
REMARK                            x       y       z     vdW  Elec       q    Type
REMARK                         _______ _______ _______ _____ _____    ______ ____
ROOT
ATOM      1  C   UNL     1      27.280  -8.879  31.470  0.00  0.00    +0.000 C 
ATOM      2  S   UNL     1      26.332  -8.546  30.199  0.00  0.00    +0.000 S 
ENDROOT
BRANCH   1   5
ATOM      3  C   UNL     1      26.041  -9.070  33.686  0.00  0.00    +0.000 C 
ATOM      4  O   UNL     1      25.756  -8.600  34.832  0.00  0.00    +0.000 OA
ATOM      5  N   UNL     1      26.950  -8.335  32.796  0.00  0.00    +0.000 N 
ATOM      6  H   UNL     1      27.352  -7.447  33.096  0.00  0.00    +0.000 HD
BRANCH   3  12
ATOM      7  C   UNL     1      21.672  -7.786  35.724  0.00  0.00    +0.000 C 
ATOM      8  C   UNL     1      21.074  -9.109  35.275  0.00  0.00    +0.000 A 
ATOM      9  C   UNL     1      21.883 -10.057  34.553  0.00  0.00    +0.000 A 
ATOM     10  C   UNL     1      23.258  -9.752  34.257  0.00  0.00    +0.000 A 
ATOM     11  C   UNL     1      24.067 -10.700  33.535  0.00  0.00    +0.000 A 
ATOM     12  C   UNL     1      25.443 -10.394  33.238  0.00  0.00    +0.000 A 
ATOM     13  C   UNL     1      19.698  -9.415  35.572  0.00  0.00    +0.000 A 
ENDBRANCH   3  12
ENDBRANCH   1   5
BRANCH   1  14
ATOM     14  N   UNL     1      28.470  -9.725  31.298  0.00  0.00    +0.000 N 
ATOM     15  H   UNL     1      28.392 -10.624  30.824  0.00  0.00    +0.000 HD
BRANCH  14  16
ATOM     16  N   UNL     1      29.728  -9.288  31.791  0.00  0.00    +0.000 N 
ATOM     17  C   UNL     1      30.893  -9.243  30.896  0.00  0.00    +0.000 C 
ATOM     18  O   UNL     1      32.019  -8.852  31.337  0.00  0.00    +0.000 OA
ATOM     19  H   UNL     1      29.823  -9.007  32.767  0.00  0.00    +0.000 HD
BRANCH  17  20
ATOM     20  C   UNL     1      30.751  -9.662  29.442  0.00  0.00    +0.000 A 
ATOM     21  C   UNL     1      31.181 -10.971  29.025  0.00  0.00    +0.000 A 
ATOM     22  C   UNL     1      31.747 -11.884  29.985  0.00  0.00    +0.000 A 
ATOM     23  C   UNL     1      32.177 -13.193  29.568  0.00  0.00    +0.000 A 
ATOM     24  C   UNL     1      32.742 -14.105  30.528  0.00  0.00    +0.000 A 
ATOM     25  C   UNL     1      30.185  -8.749  28.481  0.00  0.00    +0.000 A 
ATOM     26 CL   UNL     1      29.654  -7.131  28.997  0.00  0.00    +0.000 Cl
ENDBRANCH  17  20
ENDBRANCH  14  16
ENDBRANCH   1  14
TORSDOF 5
ENDMDL
MODEL 8
REMARK VINA RESULT:    -5.638      2.502      4.062
REMARK INTER + INTRA:          -9.392
REMARK INTER:                  -7.442
REMARK INTRA:                  -1.949
REMARK UNBOUND:                -2.106
REMARK  Name = 
REMARK  6 active torsions:
REMARK  status: ('A' for Active; 'I' for Inactive)
REMARK    1  A    between atoms: C_1  and  C_2
REMARK    2  A    between atoms: C_6  and  C_7
REMARK    3  A    between atoms: N_9  and  C_10
REMARK    4  A    between atoms: C_10  and  N_12
REMARK    5  A    between atoms: N_12  and  N_13
REMARK    6  A    between atoms: C_14  and  C_16
REMARK                            x       y       z     vdW  Elec       q    Type
REMARK                         _______ _______ _______ _____ _____    ______ ____
ROOT
ATOM      1  C   UNL     1      30.069  -7.483  28.430  0.00  0.00    +0.000 C 
ATOM      2  S   UNL     1      28.467  -7.437  28.668  0.00  0.00    +0.000 S 
ENDROOT
BRANCH   1   5
ATOM      3  C   UNL     1      31.293  -8.861  30.186  0.00  0.00    +0.000 C 
ATOM      4  O   UNL     1      32.081  -8.927  31.181  0.00  0.00    +0.000 OA
ATOM      5  N   UNL     1      30.981  -7.558  29.581  0.00  0.00    +0.000 N 
ATOM      6  H   UNL     1      31.396  -6.708  29.959  0.00  0.00    +0.000 HD
BRANCH   3  12
ATOM      7  C   UNL     1      35.092  -9.288  26.980  0.00  0.00    +0.000 C 
ATOM      8  C   UNL     1      34.473 -10.556  26.416  0.00  0.00    +0.000 A 
ATOM      9  C   UNL     1      33.230 -11.051  26.951  0.00  0.00    +0.000 A 
ATOM     10  C   UNL     1      32.574 -10.343  28.018  0.00  0.00    +0.000 A 
ATOM     11  C   UNL     1      31.331 -10.837  28.553  0.00  0.00    +0.000 A 
ATOM     12  C   UNL     1      30.674 -10.129  29.622  0.00  0.00    +0.000 A 
ATOM     13  C   UNL     1      35.130 -11.264  25.347  0.00  0.00    +0.000 A 
ENDBRANCH   3  12
ENDBRANCH   1   5
BRANCH   1  14
ATOM     14  N   UNL     1      30.611  -7.447  27.064  0.00  0.00    +0.000 N 
ATOM     15  H   UNL     1      31.568  -7.753  26.887  0.00  0.00    +0.000 HD
BRANCH  14  16
ATOM     16  N   UNL     1      29.803  -6.987  25.991  0.00  0.00    +0.000 N 
ATOM     17  C   UNL     1      29.356  -7.927  24.953  0.00  0.00    +0.000 C 
ATOM     18  O   UNL     1      28.632  -7.515  23.992  0.00  0.00    +0.000 OA
ATOM     19  H   UNL     1      29.533  -6.005  25.941  0.00  0.00    +0.000 HD
BRANCH  17  20
ATOM     20  C   UNL     1      29.759  -9.390  25.027  0.00  0.00    +0.000 A 
ATOM     21  C   UNL     1      31.004  -9.824  24.449  0.00  0.00    +0.000 A 
ATOM     22  C   UNL     1      31.868  -8.872  23.800  0.00  0.00    +0.000 A 
ATOM     23  C   UNL     1      33.113  -9.307  23.221  0.00  0.00    +0.000 A 
ATOM     24  C   UNL     1      33.977  -8.355  22.573  0.00  0.00    +0.000 A 
ATOM     25  C   UNL     1      28.895 -10.343  25.677  0.00  0.00    +0.000 A 
ATOM     26 CL   UNL     1      27.355  -9.805  26.391  0.00  0.00    +0.000 Cl
ENDBRANCH  17  20
ENDBRANCH  14  16
ENDBRANCH   1  14
TORSDOF 5
ENDMDL
MODEL 9
REMARK VINA RESULT:    -5.567     18.512     20.843
REMARK INTER + INTRA:          -9.300
REMARK INTER:                  -8.374
REMARK INTRA:                  -0.925
REMARK UNBOUND:                -2.106
REMARK  Name = 
REMARK  6 active torsions:
REMARK  status: ('A' for Active; 'I' for Inactive)
REMARK    1  A    between atoms: C_1  and  C_2
REMARK    2  A    between atoms: C_6  and  C_7
REMARK    3  A    between atoms: N_9  and  C_10
REMARK    4  A    between atoms: C_10  and  N_12
REMARK    5  A    between atoms: N_12  and  N_13
REMARK    6  A    between atoms: C_14  and  C_16
REMARK                            x       y       z     vdW  Elec       q    Type
REMARK                         _______ _______ _______ _____ _____    ______ ____
ROOT
ATOM      1  C   UNL     1      11.131   1.567  26.960  0.00  0.00    +0.000 C 
ATOM      2  S   UNL     1      10.154   2.259  25.869  0.00  0.00    +0.000 S 
ENDROOT
BRANCH   1   5
ATOM      3  C   UNL     1      12.713  -0.388  26.564  0.00  0.00    +0.000 C 
ATOM      4  O   UNL     1      12.927  -1.640  26.522  0.00  0.00    +0.000 OA
ATOM      5  N   UNL     1      11.378   0.118  26.911  0.00  0.00    +0.000 N 
ATOM      6  H   UNL     1      10.623  -0.534  27.118  0.00  0.00    +0.000 HD
BRANCH   3  12
ATOM      7  C   UNL     1      11.146  -0.067  21.838  0.00  0.00    +0.000 C 
ATOM      8  C   UNL     1      12.272   0.906  21.531  0.00  0.00    +0.000 A 
ATOM      9  C   UNL     1      13.197   1.287  22.567  0.00  0.00    +0.000 A 
ATOM     10  C   UNL     1      13.056   0.746  23.893  0.00  0.00    +0.000 A 
ATOM     11  C   UNL     1      13.981   1.127  24.930  0.00  0.00    +0.000 A 
ATOM     12  C   UNL     1      13.839   0.586  26.257  0.00  0.00    +0.000 A 
ATOM     13  C   UNL     1      12.414   1.448  20.204  0.00  0.00    +0.000 A 
ENDBRANCH   3  12
ENDBRANCH   1   5
BRANCH   1  14
ATOM     14  N   UNL     1      11.770   2.387  28.001  0.00  0.00    +0.000 N 
ATOM     15  H   UNL     1      11.903   2.008  28.938  0.00  0.00    +0.000 HD
BRANCH  14  16
ATOM     16  N   UNL     1      12.203   3.705  27.699  0.00  0.00    +0.000 N 
ATOM     17  C   UNL     1      12.952   4.479  28.700  0.00  0.00    +0.000 C 
ATOM     18  O   UNL     1      13.339   5.660  28.430  0.00  0.00    +0.000 OA
ATOM     19  H   UNL     1      11.994   4.114  26.789  0.00  0.00    +0.000 HD
BRANCH  17  20
ATOM     20  C   UNL     1      13.263   3.869  30.056  0.00  0.00    +0.000 A 
ATOM     21  C   UNL     1      14.383   2.976  30.204  0.00  0.00    +0.000 A 
ATOM     22  C   UNL     1      15.209   2.661  29.067  0.00  0.00    +0.000 A 
ATOM     23  C   UNL     1      16.329   1.768  29.215  0.00  0.00    +0.000 A 
ATOM     24  C   UNL     1      17.154   1.454  28.078  0.00  0.00    +0.000 A 
ATOM     25  C   UNL     1      12.437   4.184  31.194  0.00  0.00    +0.000 A 
ATOM     26 CL   UNL     1      11.052   5.287  31.010  0.00  0.00    +0.000 Cl
ENDBRANCH  17  20
ENDBRANCH  14  16
ENDBRANCH   1  14
TORSDOF 5
ENDMDL
MODEL 10
REMARK VINA RESULT:    -5.559     19.109     21.292
REMARK INTER + INTRA:          -9.289
REMARK INTER:                  -7.129
REMARK INTRA:                  -2.161
REMARK UNBOUND:                -2.106
REMARK  Name = 
REMARK  6 active torsions:
REMARK  status: ('A' for Active; 'I' for Inactive)
REMARK    1  A    between atoms: C_1  and  C_2
REMARK    2  A    between atoms: C_6  and  C_7
REMARK    3  A    between atoms: N_9  and  C_10
REMARK    4  A    between atoms: C_10  and  N_12
REMARK    5  A    between atoms: N_12  and  N_13
REMARK    6  A    between atoms: C_14  and  C_16
REMARK                            x       y       z     vdW  Elec       q    Type
REMARK                         _______ _______ _______ _____ _____    ______ ____
ROOT
ATOM      1  C   UNL     1      10.544   1.030  26.520  0.00  0.00    +0.000 C 
ATOM      2  S   UNL     1      11.571   2.099  27.173  0.00  0.00    +0.000 S 
ENDROOT
BRANCH   1   5
ATOM      3  C   UNL     1       9.548  -0.790  27.996  0.00  0.00    +0.000 C 
ATOM      4  O   UNL     1       8.579  -1.242  28.684  0.00  0.00    +0.000 OA
ATOM      5  N   UNL     1       9.423   0.507  27.315  0.00  0.00    +0.000 N 
ATOM      6  H   UNL     1       8.560   1.043  27.393  0.00  0.00    +0.000 HD
BRANCH   3  12
ATOM      7  C   UNL     1       7.579  -3.416  24.239  0.00  0.00    +0.000 C 
ATOM      8  C   UNL     1       8.866  -4.216  24.123  0.00  0.00    +0.000 A 
ATOM      9  C   UNL     1       9.969  -3.937  25.008  0.00  0.00    +0.000 A 
ATOM     10  C   UNL     1       9.851  -2.903  26.002  0.00  0.00    +0.000 A 
ATOM     11  C   UNL     1      10.953  -2.624  26.886  0.00  0.00    +0.000 A 
ATOM     12  C   UNL     1      10.835  -1.589  27.881  0.00  0.00    +0.000 A 
ATOM     13  C   UNL     1       8.984  -5.251  23.129  0.00  0.00    +0.000 A 
ENDBRANCH   3  12
ENDBRANCH   1   5
BRANCH   1  14
ATOM     14  N   UNL     1      10.733   0.581  25.132  0.00  0.00    +0.000 N 
ATOM     15  H   UNL     1      10.215  -0.225  24.783  0.00  0.00    +0.000 HD
BRANCH  14  16
ATOM     16  N   UNL     1      11.637   1.269  24.281  0.00  0.00    +0.000 N 
ATOM     17  C   UNL     1      12.866   0.606  23.824  0.00  0.00    +0.000 C 
ATOM     18  O   UNL     1      13.675   1.223  23.062  0.00  0.00    +0.000 OA
ATOM     19  H   UNL     1      11.432   2.224  23.987  0.00  0.00    +0.000 HD
BRANCH  17  20
ATOM     20  C   UNL     1      13.171  -0.817  24.263  0.00  0.00    +0.000 A 
ATOM     21  C   UNL     1      12.620  -1.929  23.533  0.00  0.00    +0.000 A 
ATOM     22  C   UNL     1      11.780  -1.693  22.386  0.00  0.00    +0.000 A 
ATOM     23  C   UNL     1      11.229  -2.806  21.656  0.00  0.00    +0.000 A 
ATOM     24  C   UNL     1      10.391  -2.570  20.510  0.00  0.00    +0.000 A 
ATOM     25  C   UNL     1      14.010  -1.053  25.409  0.00  0.00    +0.000 A 
ATOM     26 CL   UNL     1      14.690   0.323  26.312  0.00  0.00    +0.000 Cl
ENDBRANCH  17  20
ENDBRANCH  14  16
ENDBRANCH   1  14
TORSDOF 5
ENDMDL
