REMARK  Name = 
REMARK  7 active torsions:
REMARK  status: ('A' for Active; 'I' for Inactive)
REMARK    1  A    between atoms: C_1  and  O_2
REMARK    2  A    between atoms: O_2  and  C_3
REMARK    3  A    between atoms: C_6  and  S_7
REMARK    4  A    between atoms: S_7  and  C_10
REMARK    5  A    between atoms: C_11  and  O_12
REMARK    6  A    between atoms: C_16  and  C_17
REMARK    7  A    between atoms: N_19  and  C_20
REMARK                            x       y       z     vdW  Elec       q    Type
REMARK                         _______ _______ _______ _____ _____    ______ ____
ROOT
ATOM      1  C   UNL     1      -2.151   4.247   3.224  0.00  0.00    +0.000 A 
ATOM      2  C   UNL     1      -2.951   5.410   2.937  0.00  0.00    +0.000 A 
ATOM      3  C   UNL     1      -3.155   5.825   1.574  0.00  0.00    +0.000 A 
ATOM      4  C   UNL     1      -3.955   6.988   1.287  0.00  0.00    +0.000 A 
ATOM      5  C   UNL     1      -4.551   7.735   2.364  0.00  0.00    +0.000 A 
ATOM      6  C   UNL     1      -5.351   8.898   2.078  0.00  0.00    +0.000 A 
ATOM      7  C   UNL     1      -5.555   9.313   0.714  0.00  0.00    +0.000 A 
ATOM      8  C   UNL     1      -2.559   5.078   0.496  0.00  0.00    +0.000 A 
ATOM      9  N   UNL     1      -1.785   3.953   0.773  0.00  0.00    +0.000 N 
ATOM     10  C   UNL     1      -1.555   3.500   2.147  0.00  0.00    +0.000 A 
ATOM     11  O   UNL     1      -0.849   2.474   2.400  0.00  0.00    +0.000 OA
ATOM     12  H   UNL     1      -1.363   3.424   0.011  0.00  0.00    +0.000 HD
ENDROOT
BRANCH   6  13
ATOM     13  C   UNL     1      -5.980   9.687   3.215  0.00  0.00    +0.000 C 
ATOM     14  O   UNL     1      -6.686  10.713   2.962  0.00  0.00    +0.000 OA
ATOM     15  N   UNL     1      -5.772   9.263   4.607  0.00  0.00    +0.000 N 
ATOM     16  H   UNL     1      -6.194   9.792   5.370  0.00  0.00    +0.000 HD
BRANCH  15  17
ATOM     17  C   UNL     1      -4.955   8.076   4.899  0.00  0.00    +0.000 A 
ATOM     18  C   UNL     1      -4.359   7.328   3.822  0.00  0.00    +0.000 A 
ATOM     19  C   UNL     1      -4.563   7.744   2.458  0.00  0.00    +0.000 A 
ATOM     20  C   UNL     1      -3.967   6.997   1.381  0.00  0.00    +0.000 A 
ATOM     21  C   UNL     1      -4.171   7.412   0.017  0.00  0.00    +0.000 A 
ATOM     22  C   UNL     1      -4.751   7.660   6.263  0.00  0.00    +0.000 A 
ATOM     23 CL   UNL     1      -5.488   8.584   7.594  0.00  0.00    +0.000 Cl
ENDBRANCH  15  17
ENDBRANCH   6  13
BRANCH   1  24
ATOM     24  S   UNL     1      -1.894   3.725   4.938  0.00  0.00    +0.000 S 
ATOM     25  O   UNL     1      -3.246   3.412   5.584  0.00  0.00    +0.000 OA
ATOM     26  O   UNL     1      -1.205   4.849   5.716  0.00  0.00    +0.000 OA
BRANCH  24  30
ATOM     27  C   UNL     1       0.935  -0.070   2.526  0.00  0.00    +0.000 A 
ATOM     28  C   UNL     1       0.454   0.498   3.759  0.00  0.00    +0.000 A 
ATOM     29  C   UNL     1      -0.374   1.676   3.735  0.00  0.00    +0.000 A 
ATOM     30  C   UNL     1      -0.854   2.244   4.968  0.00  0.00    +0.000 A 
ATOM     31  C   UNL     1      -0.506   1.634   6.226  0.00  0.00    +0.000 A 
ATOM     32  C   UNL     1       1.763  -1.248   2.550  0.00  0.00    +0.000 A 
BRANCH  27  34
ATOM     33  C   UNL     1       1.065  -0.029   0.070  0.00  0.00    +0.000 C 
ATOM     34  O   UNL     1       0.591   0.531   1.286  0.00  0.00    +0.000 OA
ENDBRANCH  27  34
ENDBRANCH  24  30
ENDBRANCH   1  24
BRANCH   2  35
ATOM     35  O   UNL     1      -3.538   6.147   4.000  0.00  0.00    +0.000 OA
ATOM     36  H   UNL     1      -3.397   5.858   4.947  0.00  0.00    +0.000 HD
ENDBRANCH   2  35
TORSDOF 6
