REMARK  Name = 
REMARK  8 active torsions:
REMARK  status: ('A' for Active; 'I' for Inactive)
REMARK    1  A    between atoms: C_1  and  O_2
REMARK    2  A    between atoms: O_2  and  C_3
REMARK    3  A    between atoms: C_5  and  C_6
REMARK    4  A    between atoms: C_13  and  O_14
REMARK    5  A    between atoms: C_25  and  O_26
REMARK    6  A    between atoms: O_26  and  C_27
REMARK    7  A    between atoms: C_28  and  O_29
REMARK    8  A    between atoms: O_29  and  C_30
REMARK                            x       y       z     vdW  Elec       q    Type
REMARK                         _______ _______ _______ _____ _____    ______ ____
ROOT
ATOM      1  C   UNL     1      -0.846  -5.020   2.211  0.00  0.00    +0.000 C 
ATOM      2  C   UNL     1      -2.657  -1.539   5.181  0.00  0.00    +0.000 A 
ATOM      3  C   UNL     1      -1.829  -1.276   4.033  0.00  0.00    +0.000 A 
ATOM      4  C   UNL     1      -1.348  -2.369   3.226  0.00  0.00    +0.000 A 
ATOM      5  C   UNL     1      -1.696  -3.724   3.568  0.00  0.00    +0.000 A 
ATOM      6  C   UNL     1      -2.524  -3.986   4.717  0.00  0.00    +0.000 A 
ATOM      7  C   UNL     1      -2.872  -5.341   5.059  0.00  0.00    +0.000 A 
ATOM      8  C   UNL     1      -2.366  -6.494   4.207  0.00  0.00    +0.000 C 
ATOM      9  C   UNL     1      -2.872  -6.333   2.783  0.00  0.00    +0.000 C 
ATOM     10  C   UNL     1      -4.392  -6.333   2.783  0.00  0.00    +0.000 C 
ATOM     11  O   UNL     1      -4.866  -6.183   1.453  0.00  0.00    +0.000 OA
ATOM     12  C   UNL     1      -2.872  -4.859   0.787  0.00  0.00    +0.000 C 
ATOM     13  O   UNL     1      -2.565  -3.824   0.116  0.00  0.00    +0.000 OA
ATOM     14  C   UNL     1      -2.366  -5.020   2.211  0.00  0.00    +0.000 C 
ATOM     15  O   UNL     1      -1.223  -4.800   2.773  0.00  0.00    +0.000 OA
ATOM     16  C   UNL     1      -0.407  -4.541   1.640  0.00  0.00    +0.000 C 
ATOM     17  O   UNL     1      -1.117  -3.723   0.722  0.00  0.00    +0.000 OA
ENDROOT
BRANCH   1  20
ATOM     18  C   UNL     1      -0.935  -8.147  -0.044  0.00  0.00    +0.000 A 
ATOM     19  C   UNL     1      -1.336  -7.008   0.742  0.00  0.00    +0.000 A 
ATOM     20  C   UNL     1      -0.339  -6.172   1.359  0.00  0.00    +0.000 A 
ATOM     21  C   UNL     1       1.059  -6.475   1.191  0.00  0.00    +0.000 A 
ATOM     22  C   UNL     1       1.460  -7.613   0.405  0.00  0.00    +0.000 A 
ATOM     23  C   UNL     1      -1.932  -8.983  -0.661  0.00  0.00    +0.000 A 
BRANCH  18  25
ATOM     24  C   UNL     1       0.838  -9.568  -0.984  0.00  0.00    +0.000 C 
ATOM     25  O   UNL     1       0.443  -8.445  -0.210  0.00  0.00    +0.000 OA
ENDBRANCH  18  25
BRANCH  22  26
ATOM     26  O   UNL     1       0.477  -8.438  -0.203  0.00  0.00    +0.000 OA
ATOM     27  C   UNL     1       0.872  -9.560  -0.978  0.00  0.00    +0.000 C 
ENDBRANCH  22  26
BRANCH  23  28
ATOM     28  O   UNL     1      -1.537 -10.105  -1.436  0.00  0.00    +0.000 OA
ATOM     29  C   UNL     1      -2.520 -10.929  -2.044  0.00  0.00    +0.000 C 
ENDBRANCH  23  28
ENDBRANCH   1  20
BRANCH   8  30
ATOM     30  O   UNL     1      -0.946  -6.494   4.207  0.00  0.00    +0.000 OA
ATOM     31  H   UNL     1      -0.655  -7.451   4.205  0.00  0.00    +0.000 HD
ENDBRANCH   8  30
TORSDOF 5
