REMARK  Name = 
REMARK  2 active torsions:
REMARK  status: ('A' for Active; 'I' for Inactive)
REMARK    1  A    between atoms: C_4  and  C_5
REMARK    2  A    between atoms: C_8  and  O_9
REMARK                            x       y       z     vdW  Elec       q    Type
REMARK                         _______ _______ _______ _____ _____    ______ ____
ROOT
ATOM      1  O   UNL     1       0.911  -0.036  -0.027  0.00  0.00    +0.000 OA
ATOM      2  C   UNL     1       2.182  -0.036  -0.027  0.00  0.00    +0.000 A 
ATOM      3  C   UNL     1       2.902   1.051   0.583  0.00  0.00    +0.000 A 
ATOM      4  C   UNL     1       2.182   2.139   1.194  0.00  0.00    +0.000 A 
ATOM      5  O   UNL     1       0.836   2.139   1.194  0.00  0.00    +0.000 OA
ATOM      6  C   UNL     1       0.164   3.155   1.765  0.00  0.00    +0.000 A 
ATOM      7  C   UNL     1      -1.277   7.505   4.207  0.00  0.00    +0.000 A 
ATOM      8  C   UNL     1      -1.997   6.418   3.597  0.00  0.00    +0.000 A 
ATOM      9  C   UNL     1      -1.277   5.330   2.986  0.00  0.00    +0.000 A 
ATOM     10  C   UNL     1      -1.997   4.242   2.375  0.00  0.00    +0.000 A 
ATOM     11  O   UNL     1      -3.342   4.242   2.375  0.00  0.00    +0.000 OA
ATOM     12  C   UNL     1      -4.015   5.258   2.946  0.00  0.00    +0.000 A 
ATOM     13  C   UNL     1      -1.997   2.067   1.154  0.00  0.00    +0.000 A 
ATOM     14  C   UNL     1      -1.277   3.155   1.765  0.00  0.00    +0.000 A 
ENDROOT
BRANCH   4  15
ATOM     15  C   UNL     1       2.942   3.287   1.839  0.00  0.00    +0.000 A 
ATOM     16  C   UNL     1       4.382   3.287   1.839  0.00  0.00    +0.000 A 
ATOM     17  C   UNL     1       5.102   2.199   1.228  0.00  0.00    +0.000 A 
ATOM     18  C   UNL     1       6.542   2.199   1.228  0.00  0.00    +0.000 A 
ATOM     19  C   UNL     1       7.262   3.287   1.839  0.00  0.00    +0.000 A 
ATOM     20  C   UNL     1       2.222   4.374   2.449  0.00  0.00    +0.000 A 
BRANCH  18  21
ATOM     21  O   UNL     1       7.252   1.127   0.626  0.00  0.00    +0.000 OA
ATOM     22  H   UNL     1       6.752   0.372   0.202  0.00  0.00    +0.000 HD
ENDBRANCH  18  21
ENDBRANCH   4  15
TORSDOF 2
