REMARK  Name = 
REMARK  16 active torsions:
REMARK  status: ('A' for Active; 'I' for Inactive)
REMARK    1  A    between atoms: C_1  and  O_2
REMARK    2  A    between atoms: O_2  and  C_3
REMARK    3  A    between atoms: C_7  and  O_8
REMARK    4  A    between atoms: C_9  and  C_10
REMARK    5  A    between atoms: C_10  and  C_12
REMARK    6  A    between atoms: C_13  and  C_14
REMARK    7  A    between atoms: C_22  and  C_23
REMARK    8  A    between atoms: C_22  and  C_24
REMARK    9  A    between atoms: C_24  and  C_25
REMARK   10  A    between atoms: C_25  and  C_26
REMARK   11  A    between atoms: C_27  and  C_28
REMARK   12  A    between atoms: C_27  and  C_29
REMARK   13  A    between atoms: C_29  and  C_30
REMARK   14  A    between atoms: C_30  and  C_31
REMARK   15  A    between atoms: C_32  and  C_33
REMARK   16  A    between atoms: C_32  and  C_34
REMARK                            x       y       z     vdW  Elec       q    Type
REMARK                         _______ _______ _______ _____ _____    ______ ____
ROOT
ATOM      1  C   UNL     1       0.925  -1.700   1.789  0.00  0.00    +0.000 A 
ATOM      2  C   UNL     1       0.445  -2.159   3.067  0.00  0.00    +0.000 A 
ATOM      3  C   UNL     1      -0.383  -1.301   3.875  0.00  0.00    +0.000 A 
ATOM      4  C   UNL     1      -0.731   0.015   3.406  0.00  0.00    +0.000 A 
ATOM      5  C   UNL     1      -0.250   0.474   2.128  0.00  0.00    +0.000 A 
ATOM      6  C   UNL     1       1.753  -2.557   0.980  0.00  0.00    +0.000 A 
ATOM      7  C   UNL     1      -1.604   0.920   4.259  0.00  0.00    +0.000 C 
ATOM      8  C   UNL     1      -2.058   0.487   5.466  0.00  0.00    +0.000 C 
ATOM      9  C   UNL     1      -2.932   1.391   6.319  0.00  0.00    +0.000 C 
ATOM     10  C   UNL     1      -2.248   1.646   7.652  0.00  0.00    +0.000 C 
ATOM     11  O   UNL     1      -0.856  -1.754   5.135  0.00  0.00    +0.000 OA
ENDROOT
BRANCH   1  13
ATOM     12  C   UNL     1       1.056   0.051   0.066  0.00  0.00    +0.000 C 
ATOM     13  O   UNL     1       0.582  -0.402   1.326  0.00  0.00    +0.000 OA
ENDBRANCH   1  13
BRANCH   5  14
ATOM     14  O   UNL     1       0.566  -0.371   1.331  0.00  0.00    +0.000 OA
ATOM     15  H   UNL     1       0.899  -0.053   0.443  0.00  0.00    +0.000 HD
ENDBRANCH   5  14
BRANCH   6  16
ATOM     16  C   UNL     1       2.260  -2.073  -0.368  0.00  0.00    +0.000 C 
ATOM     17  O   UNL     1       1.953  -0.911  -0.783  0.00  0.00    +0.000 OA
BRANCH  16  18
ATOM     18  C   UNL     1       3.134  -2.978  -1.222  0.00  0.00    +0.000 C 
ATOM     19  C   UNL     1       3.463  -4.221  -0.778  0.00  0.00    +0.000 C 
BRANCH  19  20
ATOM     20  C   UNL     1       4.336  -5.126  -1.631  0.00  0.00    +0.000 A 
ATOM     21  C   UNL     1       4.817  -4.667  -2.909  0.00  0.00    +0.000 A 
ATOM     22  C   UNL     1       4.469  -3.351  -3.379  0.00  0.00    +0.000 A 
ATOM     23  C   UNL     1       4.949  -2.892  -4.657  0.00  0.00    +0.000 A 
ATOM     24  C   UNL     1       4.601  -1.575  -5.126  0.00  0.00    +0.000 A 
ATOM     25  C   UNL     1       4.684  -6.442  -1.162  0.00  0.00    +0.000 A 
ENDBRANCH  19  20
ENDBRANCH  16  18
ENDBRANCH   6  16
BRANCH   9  26
ATOM     26  C   UNL     1      -3.147   2.713   5.600  0.00  0.00    +0.000 C 
BRANCH  26  27
ATOM     27  C   UNL     1      -1.805   3.384   5.360  0.00  0.00    +0.000 C 
BRANCH  27  28
ATOM     28  C   UNL     1      -0.931   2.479   4.507  0.00  0.00    +0.000 C 
ATOM     29  C   UNL     1      -0.477   2.913   3.300  0.00  0.00    +0.000 C 
ATOM     30  C   UNL     1      -0.844   4.302   2.804  0.00  0.00    +0.000 C 
BRANCH  29  31
ATOM     31  C   UNL     1       0.397   2.008   2.447  0.00  0.00    +0.000 C 
BRANCH  31  32
ATOM     32  C   UNL     1       1.663   1.659   3.211  0.00  0.00    +0.000 C 
BRANCH  32  33
ATOM     33  C   UNL     1       1.296   0.941   4.499  0.00  0.00    +0.000 C 
ATOM     34  C   UNL     1       1.750  -0.321   4.728  0.00  0.00    +0.000 C 
ATOM     35  C   UNL     1       1.382  -1.039   6.016  0.00  0.00    +0.000 C 
ATOM     36  C   UNL     1       2.623  -1.013   3.694  0.00  0.00    +0.000 C 
ENDBRANCH  32  33
ENDBRANCH  31  32
ENDBRANCH  29  31
ENDBRANCH  27  28
ENDBRANCH  26  27
ENDBRANCH   9  26
TORSDOF 11
