REMARK  Name = 
REMARK  8 active torsions:
REMARK  status: ('A' for Active; 'I' for Inactive)
REMARK    1  A    between atoms: C_1  and  C_2
REMARK    2  A    between atoms: C_5  and  N_6
REMARK    3  A    between atoms: C_7  and  C_9
REMARK    4  A    between atoms: C_9  and  N_10
REMARK    5  A    between atoms: C_15  and  C_16
REMARK    6  A    between atoms: N_20  and  C_21
REMARK    7  A    between atoms: C_24  and  C_25
REMARK    8  A    between atoms: C_25  and  O_27
REMARK                            x       y       z     vdW  Elec       q    Type
REMARK                         _______ _______ _______ _____ _____    ______ ____
ROOT
ATOM      1  N   UNL     1       3.197  -4.951   4.640  0.00  0.00    +0.000 N 
ATOM      2  C   UNL     1       4.642  -4.738   4.803  0.00  0.00    +0.000 C 
ATOM      3  O   UNL     1       5.468  -5.507   4.218  0.00  0.00    +0.000 OA
ATOM      4  N   UNL     1       5.132  -3.634   5.642  0.00  0.00    +0.000 N 
ATOM      5  C   UNL     1       4.177  -2.745   6.318  0.00  0.00    +0.000 C 
ATOM      6  C   UNL     1       2.839  -2.943   6.167  0.00  0.00    +0.000 C 
ATOM      7  C   UNL     1       2.242  -4.062   5.316  0.00  0.00    +0.000 C 
ATOM      8  O   UNL     1       0.992  -4.247   5.176  0.00  0.00    +0.000 OA
ATOM      9  H   UNL     1       6.135  -3.486   5.754  0.00  0.00    +0.000 HD
ENDROOT
BRANCH   6  10
ATOM     10  C   UNL     1       1.852  -2.023   6.867  0.00  0.00    +0.000 A 
ATOM     11  C   UNL     1       2.332  -0.942   7.689  0.00  0.00    +0.000 A 
ATOM     12  C   UNL     1       3.748  -0.733   7.848  0.00  0.00    +0.000 A 
ATOM     13  C   UNL     1       4.228   0.348   8.670  0.00  0.00    +0.000 A 
ATOM     14  N   UNL     1       0.482  -2.226   6.713  0.00  0.00    +0.000 N 
BRANCH  14  15
ATOM     15  C   UNL     1      -0.008  -3.329   5.874  0.00  0.00    +0.000 A 
ATOM     16  C   UNL     1      -1.424  -3.539   5.714  0.00  0.00    +0.000 A 
ATOM     17  C   UNL     1      -2.360  -2.667   6.377  0.00  0.00    +0.000 A 
ATOM     18  C   UNL     1      -3.776  -2.877   6.218  0.00  0.00    +0.000 A 
ATOM     19  C   UNL     1      -4.256  -3.958   5.396  0.00  0.00    +0.000 A 
ATOM     20  C   UNL     1       0.928  -4.200   5.211  0.00  0.00    +0.000 A 
BRANCH  18  21
ATOM     21  C   UNL     1      -4.763  -1.957   6.917  0.00  0.00    +0.000 C 
ATOM     22  O   UNL     1      -6.013  -2.142   6.776  0.00  0.00    +0.000 OA
BRANCH  21  23
ATOM     23  O   UNL     1      -4.290  -0.891   7.727  0.00  0.00    +0.000 OA
ATOM     24  H   UNL     1      -4.940  -0.286   8.187  0.00  0.00    +0.000 HD
ENDBRANCH  21  23
ENDBRANCH  18  21
ENDBRANCH  14  15
ENDBRANCH   6  10
BRANCH   1  25
ATOM     25  C   UNL     1       2.707  -6.055   3.801  0.00  0.00    +0.000 C 
BRANCH  25  27
ATOM     26  N   UNL     1       2.858  -4.666   1.621  0.00  0.00    +0.000 N 
ATOM     27  C   UNL     1       3.214  -5.874   2.380  0.00  0.00    +0.000 C 
ATOM     28  O   UNL     1       3.944  -6.767   1.847  0.00  0.00    +0.000 OA
ATOM     29  H   UNL     1       3.198  -4.545   0.667  0.00  0.00    +0.000 HD
BRANCH  26  34
ATOM     30  C   UNL     1       0.996  -0.073  -0.068  0.00  0.00    +0.000 C 
ATOM     31  C   UNL     1       0.489  -0.254   1.354  0.00  0.00    +0.000 A 
ATOM     32  C   UNL     1       0.837  -1.437   2.097  0.00  0.00    +0.000 A 
ATOM     33  C   UNL     1       1.665  -2.450   1.493  0.00  0.00    +0.000 A 
ATOM     34  C   UNL     1       2.013  -3.633   2.237  0.00  0.00    +0.000 A 
ATOM     35  C   UNL     1       1.533  -3.804   3.584  0.00  0.00    +0.000 A 
ATOM     36  C   UNL     1      -0.339   0.758   1.957  0.00  0.00    +0.000 A 
ENDBRANCH  26  34
ENDBRANCH  25  27
ENDBRANCH   1  25
TORSDOF 7
