REMARK  Name = 
REMARK  8 active torsions:
REMARK  status: ('A' for Active; 'I' for Inactive)
REMARK    1  A    between atoms: C_1  and  O_2
REMARK    2  A    between atoms: O_2  and  C_3
REMARK    3  A    between atoms: C_3  and  C_4
REMARK    4  A    between atoms: C_7  and  C_8
REMARK    5  A    between atoms: C_8  and  N_10
REMARK    6  A    between atoms: N_15  and  O_16
REMARK    7  A    between atoms: C_22  and  O_23
REMARK    8  A    between atoms: O_23  and  C_24
REMARK                            x       y       z     vdW  Elec       q    Type
REMARK                         _______ _______ _______ _____ _____    ______ ____
ROOT
ATOM      1  C   UNL     1       0.544   2.660   0.909  0.00  0.00    +0.000 A 
ATOM      2  C   UNL     1      -0.872   2.717   1.166  0.00  0.00    +0.000 A 
ATOM      3  C   UNL     1      -1.808   2.480   0.097  0.00  0.00    +0.000 A 
ATOM      4  C   UNL     1      -1.328   2.186  -1.229  0.00  0.00    +0.000 A 
ATOM      5  C   UNL     1      -2.264   1.949  -2.297  0.00  0.00    +0.000 A 
ATOM      6  C   UNL     1      -3.680   2.006  -2.040  0.00  0.00    +0.000 A 
ATOM      7  C   UNL     1      -4.616   1.769  -3.109  0.00  0.00    +0.000 A 
ATOM      8  N   UNL     1      -3.178   2.535   0.346  0.00  0.00    +0.000 N 
ATOM      9  N   UNL     1       1.449   2.889   1.942  0.00  0.00    +0.000 NA
ENDROOT
BRANCH   4  10
ATOM     10  C   UNL     1       0.166   2.126  -1.500  0.00  0.00    +0.000 C 
ATOM     11  O   UNL     1       0.590   1.866  -2.670  0.00  0.00    +0.000 OA
BRANCH  10  12
ATOM     12  N   UNL     1       1.121   2.368  -0.409  0.00  0.00    +0.000 NA
ATOM     13  C   UNL     1       2.415   2.316  -0.644  0.00  0.00    +0.000 A 
ATOM     14  C   UNL     1       3.351   2.552   0.425  0.00  0.00    +0.000 A 
ATOM     15 CL   UNL     1       2.758   2.916   2.063  0.00  0.00    +0.000 Cl
ATOM     16  C   UNL     1       4.767   2.496   0.168  0.00  0.00    +0.000 A 
ATOM     17  N   UNL     1       5.231   2.211  -1.114  0.00  0.00    +0.000 N 
ATOM     18  C   UNL     1       4.326   1.982  -2.147  0.00  0.00    +0.000 A 
ATOM     19  C   UNL     1       2.895   2.022  -1.969  0.00  0.00    +0.000 A 
ATOM     20 CL   UNL     1       1.738   1.729  -3.290  0.00  0.00    +0.000 Cl
BRANCH  17  21
ATOM     21  O   UNL     1       6.578   2.157  -1.358  0.00  0.00    +0.000 OA
ATOM     22  H   UNL     1       7.228   2.322  -0.616  0.00  0.00    +0.000 HD
ENDBRANCH  17  21
ENDBRANCH  10  12
ENDBRANCH   4  10
BRANCH   7  23
ATOM     23  O   UNL     1      -4.143   1.479  -4.416  0.00  0.00    +0.000 OA
ATOM     24  C   UNL     1      -5.065   1.245  -5.470  0.00  0.00    +0.000 C 
ENDBRANCH   7  23
BRANCH   1  25
ATOM     25  C   UNL     1       1.050   2.350  -0.490  0.00  0.00    +0.000 C 
BRANCH  25  27
ATOM     26  C   UNL     1       1.050   0.086   0.012  0.00  0.00    +0.000 C 
ATOM     27  O   UNL     1       0.577   1.073  -0.893  0.00  0.00    +0.000 OA
ENDBRANCH  25  27
ENDBRANCH   1  25
TORSDOF 6
