REMARK  Name = 
REMARK  5 active torsions:
REMARK  status: ('A' for Active; 'I' for Inactive)
REMARK    1  A    between atoms: C_13  and  C_14
REMARK    2  A    between atoms: C_14  and  O_15
REMARK    3  A    between atoms: C_16  and  C_17
REMARK    4  A    between atoms: C_20  and  O_21
REMARK    5  A    between atoms: C_22  and  O_23
REMARK                            x       y       z     vdW  Elec       q    Type
REMARK                         _______ _______ _______ _____ _____    ______ ____
ROOT
ATOM      1  O   UNL     1       0.983   0.094   0.029  0.00  0.00    +0.000 OA
ATOM      2  C   UNL     1       2.254   0.094   0.029  0.00  0.00    +0.000 A 
ATOM      3  C   UNL     1       2.974   1.304  -0.273  0.00  0.00    +0.000 A 
ATOM      4  C   UNL     1       2.254   2.515  -0.574  0.00  0.00    +0.000 A 
ATOM      5  C   UNL     1       2.974   3.725  -0.876  0.00  0.00    +0.000 A 
ATOM      6  C   UNL     1       4.414   3.725  -0.876  0.00  0.00    +0.000 A 
ATOM      7  C   UNL     1       5.134   2.515  -0.574  0.00  0.00    +0.000 A 
ATOM      8  C   UNL     1       4.414   1.304  -0.273  0.00  0.00    +0.000 A 
ATOM      9  C   UNL     1       2.974   1.304  -0.273  0.00  0.00    +0.000 A 
ATOM     10  C   UNL     1       2.254   4.935  -1.178  0.00  0.00    +0.000 A 
ATOM     11  O   UNL     1       2.927  -1.036   0.311  0.00  0.00    +0.000 OA
ATOM     12  O   UNL     1       5.124   0.111   0.025  0.00  0.00    +0.000 OA
ATOM     13  C   UNL     1       4.414  -1.082   0.322  0.00  0.00    +0.000 C 
ATOM     14  C   UNL     1       3.540  -1.460  -0.863  0.00  0.00    +0.000 C 
ATOM     15  O   UNL     1       6.554   2.515  -0.574  0.00  0.00    +0.000 OA
ENDROOT
BRANCH  14  16
ATOM     16  C   UNL     1       2.780  -2.738  -0.544  0.00  0.00    +0.000 A 
ATOM     17  C   UNL     1       3.501  -3.948  -0.243  0.00  0.00    +0.000 A 
ATOM     18  C   UNL     1       4.941  -3.948  -0.243  0.00  0.00    +0.000 A 
ATOM     19  C   UNL     1       5.661  -5.158   0.059  0.00  0.00    +0.000 A 
ATOM     20  C   UNL     1       4.941  -6.368   0.361  0.00  0.00    +0.000 A 
ATOM     21  C   UNL     1       1.340  -2.738  -0.544  0.00  0.00    +0.000 A 
BRANCH  19  22
ATOM     22  O   UNL     1       7.081  -5.158   0.059  0.00  0.00    +0.000 OA
ATOM     23  H   UNL     1       7.581  -4.318  -0.150  0.00  0.00    +0.000 HD
ENDBRANCH  19  22
BRANCH  20  24
ATOM     24  O   UNL     1       5.651  -7.562   0.658  0.00  0.00    +0.000 OA
ATOM     25  H   UNL     1       5.151  -8.402   0.868  0.00  0.00    +0.000 HD
ENDBRANCH  20  24
ENDBRANCH  14  16
BRANCH  13  26
ATOM     26  C   UNL     1       3.540  -0.860   1.546  0.00  0.00    +0.000 C 
BRANCH  26  27
ATOM     27  O   UNL     1       2.618   0.187   1.285  0.00  0.00    +0.000 OA
ATOM     28  H   UNL     1       3.118   1.028   1.075  0.00  0.00    +0.000 HD
ENDBRANCH  26  27
ENDBRANCH  13  26
TORSDOF 5
