REMARK  Name = 
REMARK  5 active torsions:
REMARK  status: ('A' for Active; 'I' for Inactive)
REMARK    1  A    between atoms: C_1  and  C_2
REMARK    2  A    between atoms: C_5  and  S_6
REMARK    3  A    between atoms: S_6  and  O_9
REMARK    4  A    between atoms: O_9  and  C_10
REMARK    5  A    between atoms: C_15  and  C_16
REMARK                            x       y       z     vdW  Elec       q    Type
REMARK                         _______ _______ _______ _____ _____    ______ ____
ROOT
ATOM      1  C   UNL     1       4.266  -5.010  -1.771  0.00  0.00    +0.000 A 
ATOM      2  C   UNL     1       4.614  -4.359  -3.007  0.00  0.00    +0.000 A 
ATOM      3  C   UNL     1       4.134  -3.029  -3.281  0.00  0.00    +0.000 A 
ATOM      4  C   UNL     1       4.482  -2.378  -4.517  0.00  0.00    +0.000 A 
ATOM      5  C   UNL     1       4.002  -1.048  -4.791  0.00  0.00    +0.000 A 
ATOM      6  C   UNL     1       4.746  -6.340  -1.497  0.00  0.00    +0.000 A 
ENDROOT
BRANCH   6   7
ATOM      7  C   UNL     1       4.379  -7.027  -0.192  0.00  0.00    +0.000 C 
ATOM      8  C   UNL     1       3.597  -6.386   0.718  0.00  0.00    +0.000 C 
ATOM      9  S   UNL     1       3.160  -7.205   2.272  0.00  0.00    +0.000 S 
ATOM     10  C   UNL     1       2.119  -6.103   3.262  0.00  0.00    +0.000 C 
ATOM     11  O   UNL     1       1.812  -4.952   2.820  0.00  0.00    +0.000 OA
ATOM     12  N   UNL     1       1.629  -6.540   4.577  0.00  0.00    +0.000 N 
ATOM     13  C   UNL     1       3.090  -4.982   0.429  0.00  0.00    +0.000 C 
ATOM     14  O   UNL     1       3.397  -4.408  -0.662  0.00  0.00    +0.000 OA
ATOM     15  H   UNL     1       1.043  -5.919   5.135  0.00  0.00    +0.000 HD
ENDBRANCH   6   7
BRANCH   1  16
ATOM     16  O   UNL     1       3.450  -4.341  -0.821  0.00  0.00    +0.000 OA
BRANCH  16  17
ATOM     17  S   UNL     1       3.037  -5.114   0.647  0.00  0.00    +0.000 S 
ATOM     18  O   UNL     1       4.312  -5.447   1.425  0.00  0.00    +0.000 OA
ATOM     19  O   UNL     1       2.272  -6.405   0.346  0.00  0.00    +0.000 OA
BRANCH  17  24
ATOM     20  C   UNL     1       0.979  -0.075   0.063  0.00  0.00    +0.000 C 
ATOM     21  C   UNL     1       0.472  -0.527   1.423  0.00  0.00    +0.000 A 
ATOM     22  C   UNL     1       0.820  -1.831   1.924  0.00  0.00    +0.000 A 
ATOM     23  C   UNL     1       1.648  -2.708   1.136  0.00  0.00    +0.000 A 
ATOM     24  C   UNL     1       1.996  -4.012   1.637  0.00  0.00    +0.000 A 
ATOM     25  C   UNL     1       1.516  -4.441   2.926  0.00  0.00    +0.000 A 
ATOM     26  C   UNL     1      -0.356   0.350   2.211  0.00  0.00    +0.000 A 
ENDBRANCH  17  24
ENDBRANCH  16  17
ENDBRANCH   1  16
TORSDOF 4
