REMARK  Name = 
REMARK  2 active torsions:
REMARK  status: ('A' for Active; 'I' for Inactive)
REMARK    1  A    between atoms: S_2  and  C_4
REMARK    2  A    between atoms: S_2  and  C_11
REMARK                            x       y       z     vdW  Elec       q    Type
REMARK                         _______ _______ _______ _____ _____    ______ ____
ROOT
ATOM      1  O   UNL     1       0.941  -0.009  -0.080  0.00  0.00    +0.000 OA
ATOM      2  S   UNL     1       2.471  -0.009  -0.080  0.00  0.00    +0.000 S 
ATOM      3  O   UNL     1       2.981  -1.208   0.723  0.00  0.00    +0.000 OA
ENDROOT
BRANCH   2   4
ATOM      4  C   UNL     1       3.075   1.522   0.672  0.00  0.00    +0.000 A 
ATOM      5  C   UNL     1       4.491   1.759   0.788  0.00  0.00    +0.000 A 
ATOM      6  N   UNL     1       5.396   0.808   0.321  0.00  0.00    +0.000 NA
ATOM      7  C   UNL     1       4.931  -0.370  -0.257  0.00  0.00    +0.000 A 
ATOM      8  C   UNL     1       5.867  -1.353  -0.740  0.00  0.00    +0.000 A 
ATOM      9  C   UNL     1       7.283  -1.117  -0.624  0.00  0.00    +0.000 A 
ATOM     10  C   UNL     1       8.219  -2.099  -1.107  0.00  0.00    +0.000 A 
ATOM     11  C   UNL     1       9.635  -1.863  -0.991  0.00  0.00    +0.000 A 
ATOM     12  C   UNL     1       3.515  -0.607  -0.373  0.00  0.00    +0.000 A 
ATOM     13  N   UNL     1       2.170   2.473   1.139  0.00  0.00    +0.000 NA
ENDBRANCH   2   4
BRANCH   2  14
ATOM     14  C   UNL     1       3.075  -0.124  -1.783  0.00  0.00    +0.000 A 
ATOM     15  C   UNL     1       2.727  -1.261  -2.595  0.00  0.00    +0.000 A 
ATOM     16  C   UNL     1       1.899  -2.307  -2.053  0.00  0.00    +0.000 A 
ATOM     17  C   UNL     1       1.551  -3.444  -2.865  0.00  0.00    +0.000 A 
ATOM     18 BR   UNL     1       0.424  -4.868  -2.127  0.00  0.00    +0.000 Br
ATOM     19  C   UNL     1       2.031  -3.535  -4.220  0.00  0.00    +0.000 A 
ATOM     20  C   UNL     1       3.903   0.922  -2.325  0.00  0.00    +0.000 A 
ENDBRANCH   2  14
TORSDOF 2
