REMARK  Name = 
REMARK  5 active torsions:
REMARK  status: ('A' for Active; 'I' for Inactive)
REMARK    1  A    between atoms: C_2  and  C_15
REMARK    2  A    between atoms: N_3  and  N_4
REMARK    3  A    between atoms: N_4  and  C_5
REMARK    4  A    between atoms: C_5  and  N_7
REMARK    5  A    between atoms: C_8  and  C_10
REMARK                            x       y       z     vdW  Elec       q    Type
REMARK                         _______ _______ _______ _____ _____    ______ ____
ROOT
ATOM      1  N   UNL     1       4.518   0.313  -1.218  0.00  0.00    +0.000 N 
ATOM      2  H   UNL     1       5.028   0.068  -0.369  0.00  0.00    +0.000 HD
ENDROOT
BRANCH   1   5
ATOM      3  O   UNL     1       1.092  -0.040   0.006  0.00  0.00    +0.000 OA
ATOM      4  C   UNL     1       2.363  -0.040   0.006  0.00  0.00    +0.000 C 
ATOM      5  N   UNL     1       3.098   0.313  -1.218  0.00  0.00    +0.000 N 
ATOM      6  H   UNL     1       2.588   0.557  -2.067  0.00  0.00    +0.000 HD
BRANCH   4   7
ATOM      7  C   UNL     1       3.123  -0.404   1.271  0.00  0.00    +0.000 A 
ATOM      8  C   UNL     1       4.563  -0.404   1.271  0.00  0.00    +0.000 A 
ATOM      9  C   UNL     1       5.283  -0.059   0.072  0.00  0.00    +0.000 A 
ATOM     10  C   UNL     1       6.723  -0.059   0.072  0.00  0.00    +0.000 A 
ATOM     11  F   UNL     1       7.388   0.260  -1.035  0.00  0.00    +0.000 F 
ATOM     12  C   UNL     1       7.443  -0.404   1.271  0.00  0.00    +0.000 A 
ATOM     13  C   UNL     1       2.402  -0.749   2.469  0.00  0.00    +0.000 A 
ENDBRANCH   4   7
ENDBRANCH   1   5
BRANCH   1  14
ATOM     14  C   UNL     1       5.253   0.665  -2.441  0.00  0.00    +0.000 C 
ATOM     15  S   UNL     1       6.872   0.665  -2.441  0.00  0.00    +0.000 S 
BRANCH  14  16
ATOM     16  N   UNL     1       4.518   1.017  -3.664  0.00  0.00    +0.000 N 
ATOM     17  C   UNL     1       3.048   1.017  -3.664  0.00  0.00    +0.000 C 
ATOM     18  O   UNL     1       2.412   1.322  -4.722  0.00  0.00    +0.000 OA
ATOM     19  H   UNL     1       5.028   1.262  -4.513  0.00  0.00    +0.000 HD
BRANCH  17  20
ATOM     20  C   UNL     1       2.288   0.653  -2.399  0.00  0.00    +0.000 A 
ATOM     21  C   UNL     1       0.847   0.653  -2.399  0.00  0.00    +0.000 A 
ATOM     22  C   UNL     1       0.127   0.998  -3.598  0.00  0.00    +0.000 A 
ATOM     23  C   UNL     1      -1.313   0.998  -3.598  0.00  0.00    +0.000 A 
ATOM     24  O   UNL     1       2.960   0.331  -1.280  0.00  0.00    +0.000 OA
ENDBRANCH  17  20
ENDBRANCH  14  16
ENDBRANCH   1  14
TORSDOF 5
