REMARK  Name = 
REMARK  10 active torsions:
REMARK  status: ('A' for Active; 'I' for Inactive)
REMARK    1  A    between atoms: C_1  and  C_2
REMARK    2  A    between atoms: C_2  and  C_3
REMARK    3  A    between atoms: C_2  and  C_4
REMARK    4  A    between atoms: C_2  and  N_5
REMARK    5  A    between atoms: N_5  and  C_6
REMARK    6  A    between atoms: C_6  and  N_8
REMARK    7  A    between atoms: N_8  and  N_9
REMARK    8  A    between atoms: C_10  and  C_11
REMARK    9  A    between atoms: C_14  and  C_15
REMARK   10  A    between atoms: C_18  and  N_19
REMARK                            x       y       z     vdW  Elec       q    Type
REMARK                         _______ _______ _______ _____ _____    ______ ____
ROOT
ATOM      1  C   UNL     1       0.532   0.839   1.255  0.00  0.00    +0.000 A 
ATOM      2  C   UNL     1       1.012   0.406   2.542  0.00  0.00    +0.000 A 
ATOM      3  C   UNL     1       1.840  -0.768   2.644  0.00  0.00    +0.000 A 
ATOM      4  C   UNL     1       2.320  -1.201   3.931  0.00  0.00    +0.000 A 
ATOM      5  O   UNL     1      -0.242   1.936   1.160  0.00  0.00    +0.000 OA
ENDROOT
BRANCH   4   6
ATOM      6  C   UNL     1       1.952  -0.419   5.181  0.00  0.00    +0.000 A 
ATOM      7  C   UNL     1       2.433  -0.853   6.468  0.00  0.00    +0.000 A 
ATOM      8  C   UNL     1       3.261  -2.027   6.570  0.00  0.00    +0.000 A 
ATOM      9  C   UNL     1       3.741  -2.460   7.857  0.00  0.00    +0.000 A 
ATOM     10  C   UNL     1       3.393  -1.719   9.042  0.00  0.00    +0.000 A 
ATOM     11  C   UNL     1       1.124   0.755   5.079  0.00  0.00    +0.000 A 
BRANCH   9  12
ATOM     12  N   UNL     1       4.586  -3.658   7.961  0.00  0.00    +0.000 N 
ATOM     13  O   UNL     1       4.994  -4.027   9.057  0.00  0.00    +0.000 OA
ATOM     14  O   UNL     1       4.917  -4.363   6.834  0.00  0.00    +0.000 OA
ENDBRANCH   9  12
ENDBRANCH   4   6
BRANCH   1  16
ATOM     15  N   UNL     1       1.655  -1.016   0.097  0.00  0.00    +0.000 NA
ATOM     16  C   UNL     1       0.899   0.057   0.004  0.00  0.00    +0.000 C 
BRANCH  15  17
ATOM     17  N   UNL     1       2.128  -1.443   1.366  0.00  0.00    +0.000 N 
ATOM     18  H   UNL     1       2.715  -2.274   1.438  0.00  0.00    +0.000 HD
BRANCH  17  19
ATOM     19  C   UNL     1       1.773  -0.686   2.576  0.00  0.00    +0.000 C 
ATOM     20  S   UNL     1       2.313  -1.174   4.023  0.00  0.00    +0.000 S 
BRANCH  19  21
ATOM     21  N   UNL     1       0.928   0.512   2.472  0.00  0.00    +0.000 N 
ATOM     22  H   UNL     1       0.682   1.037   3.311  0.00  0.00    +0.000 HD
BRANCH  21  24
ATOM     23  C   UNL     1       0.945   0.006   0.083  0.00  0.00    +0.000 C 
ATOM     24  C   UNL     1       0.438   0.954   1.158  0.00  0.00    +0.000 C 
ATOM     25  C   UNL     1       0.945   2.359   0.875  0.00  0.00    +0.000 C 
ATOM     26  C   UNL     1      -1.082   0.954   1.158  0.00  0.00    +0.000 C 
ENDBRANCH  21  24
ENDBRANCH  19  21
ENDBRANCH  17  19
ENDBRANCH  15  17
ENDBRANCH   1  16
TORSDOF 7
