REMARK  Name = 
REMARK  5 active torsions:
REMARK  status: ('A' for Active; 'I' for Inactive)
REMARK    1  A    between atoms: C_1  and  C_2
REMARK    2  A    between atoms: C_10  and  C_11
REMARK    3  A    between atoms: C_11  and  C_12
REMARK    4  A    between atoms: C_12  and  N_13
REMARK    5  A    between atoms: C_14  and  C_16
REMARK                            x       y       z     vdW  Elec       q    Type
REMARK                         _______ _______ _______ _____ _____    ______ ____
ROOT
ATOM      1  N   UNL     1       1.339  -0.369  -1.940  0.00  0.00    +0.000 N 
ATOM      2  C   UNL     1       1.695  -1.793  -2.021  0.00  0.00    +0.000 C 
ATOM      3  O   UNL     1       2.425  -2.317  -1.123  0.00  0.00    +0.000 OA
ATOM      4  H   UNL     1       1.679   0.199  -1.163  0.00  0.00    +0.000 HD
ENDROOT
BRANCH   2   5
ATOM      5  C   UNL     1       1.188  -2.638  -3.178  0.00  0.00    +0.000 A 
ATOM      6  C   UNL     1       1.536  -4.033  -3.257  0.00  0.00    +0.000 A 
ATOM      7  N   UNL     1       2.337  -4.608  -2.273  0.00  0.00    +0.000 NA
ATOM      8  C   UNL     1       2.801  -3.834  -1.213  0.00  0.00    +0.000 A 
ATOM      9  N   UNL     1       2.446  -2.410  -1.132  0.00  0.00    +0.000 N 
ATOM     10  C   UNL     1       2.936  -1.592  -0.013  0.00  0.00    +0.000 A 
ATOM     11  C   UNL     1       3.764  -2.187   1.005  0.00  0.00    +0.000 A 
ATOM     12  C   UNL     1       4.112  -3.582   0.925  0.00  0.00    +0.000 A 
ATOM     13  C   UNL     1       4.940  -4.177   1.943  0.00  0.00    +0.000 A 
ATOM     14  C   UNL     1       5.288  -5.572   1.864  0.00  0.00    +0.000 A 
ATOM     15  F   UNL     1       4.844  -6.311   0.851  0.00  0.00    +0.000 F 
ATOM     16  N   UNL     1       2.599  -0.243   0.064  0.00  0.00    +0.000 NA
ATOM     17  N   UNL     1       3.602  -4.409  -0.229  0.00  0.00    +0.000 NA
ATOM     18  C   UNL     1       0.360  -2.043  -4.196  0.00  0.00    +0.000 A 
ATOM     19  H   UNL     1       1.859  -1.989  -1.853  0.00  0.00    +0.000 HD
ENDBRANCH   2   5
BRANCH   1  20
ATOM     20  C   UNL     1       0.494   0.238  -2.978  0.00  0.00    +0.000 C 
BRANCH  20  21
ATOM     21  C   UNL     1      -0.772   0.788  -2.343  0.00  0.00    +0.000 C 
BRANCH  21  31
ATOM     22  C   UNL     1       0.929   0.063  -0.032  0.00  0.00    +0.000 C 
ATOM     23  C   UNL     1       0.423   1.488  -0.186  0.00  0.00    +0.000 A 
ATOM     24  N   UNL     1       0.759   2.452   0.761  0.00  0.00    +0.000 N 
ATOM     25  C   UNL     1       1.560   2.111   1.849  0.00  0.00    +0.000 A 
ATOM     26  C   UNL     1       2.040   0.761   1.994  0.00  0.00    +0.000 A 
ATOM     27  C   UNL     1       1.692  -0.236   1.015  0.00  0.00    +0.000 A 
ATOM     28  C   UNL     1       2.172  -1.586   1.160  0.00  0.00    +0.000 A 
ATOM     29  C   UNL     1       1.824  -2.583   0.181  0.00  0.00    +0.000 A 
ATOM     30  C   UNL     1       1.908   3.108   2.828  0.00  0.00    +0.000 A 
ATOM     31  C   UNL     1      -0.405   1.841  -1.310  0.00  0.00    +0.000 A 
ATOM     32  H   UNL     1       0.419   3.408   0.659  0.00  0.00    +0.000 HD
ENDBRANCH  21  31
ENDBRANCH  20  21
ENDBRANCH   1  20
TORSDOF 4
