REMARK  Name = 
REMARK  4 active torsions:
REMARK  status: ('A' for Active; 'I' for Inactive)
REMARK    1  A    between atoms: C_1  and  O_2
REMARK    2  A    between atoms: O_2  and  C_3
REMARK    3  A    between atoms: C_6  and  C_7
REMARK    4  A    between atoms: C_10  and  C_11
REMARK                            x       y       z     vdW  Elec       q    Type
REMARK                         _______ _______ _______ _____ _____    ______ ____
ROOT
ATOM      1  C   UNL     1      -1.851   1.766   5.721  0.00  0.00    +0.000 C 
ATOM      2  C   UNL     1      -2.304   1.918   6.995  0.00  0.00    +0.000 C 
ATOM      3  S   UNL     1      -1.867   0.703   8.263  0.00  0.00    +0.000 S 
ATOM      4  C   UNL     1      -2.616   1.180   9.840  0.00  0.00    +0.000 C 
ATOM      5  N   UNL     1      -2.430   0.436  10.909  0.00  0.00    +0.000 NA
ATOM      6  C   UNL     1      -3.178   3.109   7.353  0.00  0.00    +0.000 C 
ATOM      7  O   UNL     1      -3.485   3.963   6.463  0.00  0.00    +0.000 OA
ENDROOT
BRANCH   4   8
ATOM      8  C   UNL     1      -3.461   2.441   9.930  0.00  0.00    +0.000 A 
ATOM      9  C   UNL     1      -3.665   3.255   8.760  0.00  0.00    +0.000 A 
ATOM     10  C   UNL     1      -3.069   2.876   7.505  0.00  0.00    +0.000 A 
ATOM     11  C   UNL     1      -3.273   3.691   6.335  0.00  0.00    +0.000 A 
ATOM     12  C   UNL     1      -2.677   3.311   5.080  0.00  0.00    +0.000 A 
ATOM     13  C   UNL     1      -4.057   2.820  11.185  0.00  0.00    +0.000 A 
ATOM     14 CL   UNL     1      -3.804   1.813  12.630  0.00  0.00    +0.000 Cl
ENDBRANCH   4   8
BRANCH   1  18
ATOM     15  C   UNL     1       0.811  -0.876   2.327  0.00  0.00    +0.000 A 
ATOM     16  C   UNL     1       0.331  -0.714   3.675  0.00  0.00    +0.000 A 
ATOM     17  C   UNL     1      -0.497   0.414   4.015  0.00  0.00    +0.000 A 
ATOM     18  C   UNL     1      -0.977   0.575   5.363  0.00  0.00    +0.000 A 
ATOM     19  C   UNL     1      -0.629  -0.392   6.372  0.00  0.00    +0.000 A 
ATOM     20  C   UNL     1       1.639  -2.004   1.988  0.00  0.00    +0.000 A 
BRANCH  15  22
ATOM     21  C   UNL     1       0.942  -0.081   0.003  0.00  0.00    +0.000 C 
ATOM     22  O   UNL     1       0.468   0.078   1.333  0.00  0.00    +0.000 OA
ENDBRANCH  15  22
ENDBRANCH   1  18
TORSDOF 3
