REMARK  Name = 
REMARK  9 active torsions:
REMARK  status: ('A' for Active; 'I' for Inactive)
REMARK    1  A    between atoms: C_1  and  O_2
REMARK    2  A    between atoms: O_2  and  C_3
REMARK    3  A    between atoms: C_6  and  C_7
REMARK    4  A    between atoms: C_7  and  C_8
REMARK    5  A    between atoms: C_7  and  C_15
REMARK    6  A    between atoms: C_8  and  C_9
REMARK    7  A    between atoms: C_18  and  N_19
REMARK    8  A    between atoms: C_30  and  O_31
REMARK    9  A    between atoms: O_31  and  C_32
REMARK                            x       y       z     vdW  Elec       q    Type
REMARK                         _______ _______ _______ _____ _____    ______ ____
ROOT
ATOM      1  C   UNL     1      -1.808  -5.191  -2.855  0.00  0.00    +0.000 C 
ENDROOT
BRANCH   1   5
ATOM      2  C   UNL     1      -6.437  -7.107  -3.553  0.00  0.00    +0.000 A 
ATOM      3  C   UNL     1      -5.430  -6.137  -3.897  0.00  0.00    +0.000 A 
ATOM      4  C   UNL     1      -4.158  -6.148  -3.222  0.00  0.00    +0.000 A 
ATOM      5  C   UNL     1      -3.151  -5.178  -3.567  0.00  0.00    +0.000 A 
ATOM      6  C   UNL     1      -3.416  -4.196  -4.587  0.00  0.00    +0.000 A 
ATOM      7  C   UNL     1      -7.710  -7.095  -4.228  0.00  0.00    +0.000 A 
BRANCH   2   9
ATOM      8  C   UNL     1      -7.169  -9.031  -2.207  0.00  0.00    +0.000 C 
ATOM      9  O   UNL     1      -6.176  -8.075  -2.547  0.00  0.00    +0.000 OA
ENDBRANCH   2   9
BRANCH   7  10
ATOM     10  O   UNL     1      -8.703  -8.051  -3.888  0.00  0.00    +0.000 OA
BRANCH  10  11
ATOM     11  C   UNL     1      -9.957  -8.039  -4.553  0.00  0.00    +0.000 C 
ATOM     12  C   UNL     1      -9.742  -8.247  -6.043  0.00  0.00    +0.000 C 
ATOM     13  C   UNL     1      -9.058  -9.585  -6.275  0.00  0.00    +0.000 C 
ATOM     14  C   UNL     1      -9.932 -10.702  -5.728  0.00  0.00    +0.000 C 
ATOM     15  C   UNL     1     -10.641  -6.702  -4.322  0.00  0.00    +0.000 C 
ENDBRANCH  10  11
ENDBRANCH   7  10
ENDBRANCH   1   5
BRANCH   1  16
ATOM     16  C   UNL     1      -1.124  -6.528  -3.086  0.00  0.00    +0.000 A 
ATOM     17  C   UNL     1      -0.811  -6.955  -4.425  0.00  0.00    +0.000 A 
ATOM     18  C   UNL     1      -1.146  -6.114  -5.546  0.00  0.00    +0.000 A 
ATOM     19  C   UNL     1      -0.833  -6.541  -6.885  0.00  0.00    +0.000 A 
ATOM     20  C   UNL     1      -0.185  -7.808  -7.104  0.00  0.00    +0.000 A 
ATOM     21  C   UNL     1      -0.789  -7.369  -1.965  0.00  0.00    +0.000 A 
BRANCH  19  22
ATOM     22  N   UNL     1      -1.175  -5.683  -8.029  0.00  0.00    +0.000 N 
ATOM     23  C   UNL     1      -0.856  -6.119  -9.396  0.00  0.00    +0.000 C 
ATOM     24  O   UNL     1      -1.151  -5.377 -10.384  0.00  0.00    +0.000 OA
ATOM     25  N   UNL     1      -0.194  -7.412  -9.619  0.00  0.00    +0.000 N 
ATOM     26  C   UNL     1       0.125  -7.848 -10.986  0.00  0.00    +0.000 C 
ATOM     27  C   UNL     1      -1.155  -7.945 -11.800  0.00  0.00    +0.000 C 
ATOM     28  C   UNL     1      -1.830  -6.584 -11.846  0.00  0.00    +0.000 C 
ATOM     29  C   UNL     1       0.148  -8.270  -8.476  0.00  0.00    +0.000 C 
ATOM     30  H   UNL     1      -1.634  -4.786  -7.874  0.00  0.00    +0.000 HD
ENDBRANCH  19  22
ENDBRANCH   1  16
BRANCH   1  31
ATOM     31  C   UNL     1      -0.934  -4.073  -3.401  0.00  0.00    +0.000 C 
BRANCH  31  32
ATOM     32  C   UNL     1      -1.001  -4.048  -4.919  0.00  0.00    +0.000 A 
ATOM     33  C   UNL     1      -0.637  -5.218  -5.676  0.00  0.00    +0.000 A 
ATOM     34  C   UNL     1      -0.209  -6.412  -4.994  0.00  0.00    +0.000 A 
ATOM     35  N   UNL     1       0.143  -7.544  -5.726  0.00  0.00    +0.000 NA
ATOM     36  C   UNL     1       0.082  -7.520  -7.117  0.00  0.00    +0.000 A 
ATOM     37  C   UNL     1      -1.429  -2.854  -5.601  0.00  0.00    +0.000 A 
ENDBRANCH  31  32
ENDBRANCH   1  31
TORSDOF 8
