REMARK  Name = 
REMARK  7 active torsions:
REMARK  status: ('A' for Active; 'I' for Inactive)
REMARK    1  A    between atoms: C_1  and  C_2
REMARK    2  A    between atoms: C_2  and  O_3
REMARK    3  A    between atoms: O_3  and  C_4
REMARK    4  A    between atoms: C_4  and  C_6
REMARK    5  A    between atoms: C_7  and  C_8
REMARK    6  A    between atoms: C_8  and  C_9
REMARK    7  A    between atoms: C_21  and  O_22
REMARK                            x       y       z     vdW  Elec       q    Type
REMARK                         _______ _______ _______ _____ _____    ______ ____
ROOT
ATOM      1  C   UNL     1       2.808  -2.800   2.892  0.00  0.00    +0.000 A 
ATOM      2  C   UNL     1       4.224  -2.915   3.129  0.00  0.00    +0.000 A 
ATOM      3  N   UNL     1       4.688  -3.490   4.309  0.00  0.00    +0.000 N 
ATOM      4  C   UNL     1       3.783  -3.954   5.261  0.00  0.00    +0.000 A 
ATOM      5  C   UNL     1       1.456  -5.987   9.434  0.00  0.00    +0.000 A 
ATOM      6  C   UNL     1       0.975  -5.392   8.213  0.00  0.00    +0.000 A 
ATOM      7  C   UNL     1       1.911  -4.913   7.229  0.00  0.00    +0.000 A 
ATOM      8  C   UNL     1       1.431  -4.318   6.008  0.00  0.00    +0.000 A 
ATOM      9  C   UNL     1       0.015  -4.203   5.772  0.00  0.00    +0.000 A 
ATOM     10  C   UNL     1      -0.465  -3.608   4.551  0.00  0.00    +0.000 A 
ATOM     11  C   UNL     1      -1.881  -3.493   4.315  0.00  0.00    +0.000 A 
ATOM     12  C   UNL     1       1.887  -3.244   3.804  0.00  0.00    +0.000 A 
ATOM     13  C   UNL     1       2.367  -3.839   5.024  0.00  0.00    +0.000 A 
ATOM     14  H   UNL     1       5.691  -3.572   4.477  0.00  0.00    +0.000 HD
ENDROOT
BRANCH   1  15
ATOM     15  C   UNL     1       2.301  -2.172   1.604  0.00  0.00    +0.000 C 
ATOM     16  O   UNL     1       3.127  -1.749   0.735  0.00  0.00    +0.000 OA
BRANCH  15  17
ATOM     17  O   UNL     1       0.905  -2.059   1.370  0.00  0.00    +0.000 OA
BRANCH  17  19
ATOM     18  C   UNL     1       0.939  -0.043   0.066  0.00  0.00    +0.000 C 
ATOM     19  C   UNL     1       0.432  -1.472   0.167  0.00  0.00    +0.000 C 
ENDBRANCH  17  19
ENDBRANCH  15  17
ENDBRANCH   1  15
BRANCH   7  20
ATOM     20  O   UNL     1       3.307  -5.026   7.462  0.00  0.00    +0.000 OA
ATOM     21  H   UNL     1       3.641  -5.439   8.310  0.00  0.00    +0.000 HD
ENDBRANCH   7  20
BRANCH   2  22
ATOM     22  C   UNL     1       5.212  -2.409   2.090  0.00  0.00    +0.000 C 
BRANCH  22  23
ATOM     23  C   UNL     1       6.086  -1.329   2.706  0.00  0.00    +0.000 A 
ATOM     24  C   UNL     1       5.485  -0.129   3.229  0.00  0.00    +0.000 A 
ATOM     25  F   UNL     1       4.167   0.034   3.173  0.00  0.00    +0.000 F 
ATOM     26  C   UNL     1       6.313   0.895   3.813  0.00  0.00    +0.000 A 
ATOM     27  C   UNL     1       7.742   0.719   3.873  0.00  0.00    +0.000 A 
ATOM     28  C   UNL     1       8.570   1.742   4.457  0.00  0.00    +0.000 A 
ATOM     29  C   UNL     1       7.514  -1.505   2.766  0.00  0.00    +0.000 A 
ATOM     30  F   UNL     1       8.068  -2.614   2.283  0.00  0.00    +0.000 F 
ENDBRANCH  22  23
ENDBRANCH   2  22
TORSDOF 6
