REMARK  Name = 
REMARK  7 active torsions:
REMARK  status: ('A' for Active; 'I' for Inactive)
REMARK    1  A    between atoms: C_2  and  C_3
REMARK    2  A    between atoms: C_4  and  C_5
REMARK    3  A    between atoms: C_10  and  C_11
REMARK    4  A    between atoms: C_17  and  C_18
REMARK    5  A    between atoms: C_18  and  O_19
REMARK    6  A    between atoms: N_20  and  S_21
REMARK    7  A    between atoms: S_21  and  C_24
REMARK                            x       y       z     vdW  Elec       q    Type
REMARK                         _______ _______ _______ _____ _____    ______ ____
ROOT
ATOM      1  C   UNL     1       3.798   0.074  -0.065  0.00  0.00    +0.000 C 
ATOM      2  C   UNL     1       6.265  -0.177  -1.453  0.00  0.00    +0.000 C 
ATOM      3  C   UNL     1       5.758   1.157  -0.929  0.00  0.00    +0.000 C 
ATOM      4  N   UNL     1       4.288   1.157  -0.929  0.00  0.00    +0.000 NA
ENDROOT
BRANCH   2   5
ATOM      5  C   UNL     1       7.785  -0.177  -1.453  0.00  0.00    +0.000 A 
ATOM      6  C   UNL     1       8.505   0.799  -2.231  0.00  0.00    +0.000 A 
ATOM      7  C   UNL     1       7.785   1.774  -3.008  0.00  0.00    +0.000 A 
ATOM      8  C   UNL     1       8.505   2.749  -3.786  0.00  0.00    +0.000 A 
ATOM      9  C   UNL     1       7.785   3.724  -4.563  0.00  0.00    +0.000 A 
ATOM     10  C   UNL     1       8.505  -1.152  -0.675  0.00  0.00    +0.000 A 
BRANCH  10  11
ATOM     11  C   UNL     1       7.745  -2.181   0.145  0.00  0.00    +0.000 C 
ATOM     12  C   UNL     1       8.425  -3.102   0.880  0.00  0.00    +0.000 C 
ATOM     13  C   UNL     1       9.945  -3.102   0.880  0.00  0.00    +0.000 C 
ATOM     14  C   UNL     1      10.452  -2.889   2.297  0.00  0.00    +0.000 C 
ATOM     15  C   UNL     1       9.945  -4.009   3.190  0.00  0.00    +0.000 C 
ATOM     16  C   UNL     1       6.225  -2.181   0.145  0.00  0.00    +0.000 C 
ENDBRANCH  10  11
ENDBRANCH   2   5
BRANCH   4  17
ATOM     17  S   UNL     1       3.702   0.910  -2.570  0.00  0.00    +0.000 S 
ATOM     18  O   UNL     1       4.212  -0.433  -3.097  0.00  0.00    +0.000 OA
ATOM     19  O   UNL     1       2.171   0.910  -2.570  0.00  0.00    +0.000 OA
BRANCH  17  20
ATOM     20  C   UNL     1       4.305   2.244  -3.634  0.00  0.00    +0.000 A 
ATOM     21  C   UNL     1       3.957   2.264  -5.032  0.00  0.00    +0.000 A 
ATOM     22  C   UNL     1       3.129   1.223  -5.582  0.00  0.00    +0.000 A 
ATOM     23  C   UNL     1       2.781   1.243  -6.980  0.00  0.00    +0.000 A 
ATOM     24  C   UNL     1       1.953   0.201  -7.531  0.00  0.00    +0.000 A 
ATOM     25  C   UNL     1       5.133   3.286  -3.083  0.00  0.00    +0.000 A 
ENDBRANCH  17  20
ENDBRANCH   4  17
BRANCH   1  27
ATOM     26  N   UNL     1       1.017   0.074  -0.065  0.00  0.00    +0.000 NA
ATOM     27  C   UNL     1       2.278   0.074  -0.065  0.00  0.00    +0.000 C 
ENDBRANCH   1  27
BRANCH   3  28
ATOM     28  C   UNL     1       6.265   2.278  -1.823  0.00  0.00    +0.000 C 
BRANCH  28  29
ATOM     29  O   UNL     1       5.792   3.524  -1.334  0.00  0.00    +0.000 OA
ATOM     30  H   UNL     1       4.792   3.524  -1.334  0.00  0.00    +0.000 HD
ENDBRANCH  28  29
ENDBRANCH   3  28
TORSDOF 7
