REMARK  Name = 
REMARK  7 active torsions:
REMARK  status: ('A' for Active; 'I' for Inactive)
REMARK    1  A    between atoms: C_1  and  S_2
REMARK    2  A    between atoms: S_2  and  C_5
REMARK    3  A    between atoms: C_5  and  C_6
REMARK    4  A    between atoms: C_6  and  N_7
REMARK    5  A    between atoms: C_8  and  C_10
REMARK    6  A    between atoms: N_16  and  C_17
REMARK    7  A    between atoms: C_17  and  C_18
REMARK                            x       y       z     vdW  Elec       q    Type
REMARK                         _______ _______ _______ _____ _____    ______ ____
ROOT
ATOM      1  C   UNL     1       2.268  -4.482   2.343  0.00  0.00    +0.000 C 
ATOM      2  C   UNL     1       1.001  -5.008   2.997  0.00  0.00    +0.000 C 
ATOM      3  C   UNL     1       0.241  -5.875   2.006  0.00  0.00    +0.000 C 
ATOM      4  N   UNL     1       1.086  -7.005   1.594  0.00  0.00    +0.000 N 
ATOM      5  C   UNL     1       0.642  -8.384   1.843  0.00  0.00    +0.000 C 
ATOM      6  O   UNL     1       1.373  -9.361   1.487  0.00  0.00    +0.000 OA
ATOM      7  N   UNL     1      -0.647  -8.633   2.505  0.00  0.00    +0.000 N 
ATOM      8  C   UNL     1       2.375  -6.756   0.933  0.00  0.00    +0.000 C 
ATOM      9  C   UNL     1       3.028  -3.616   3.334  0.00  0.00    +0.000 C 
ATOM     10  H   UNL     1      -0.955  -9.589   2.678  0.00  0.00    +0.000 HD
ENDROOT
BRANCH   1  12
ATOM     11  N   UNL     1       1.056  -2.459   1.273  0.00  0.00    +0.000 N 
ATOM     12  C   UNL     1       1.901  -3.652   1.123  0.00  0.00    +0.000 C 
ATOM     13  O   UNL     1       2.324  -3.991  -0.026  0.00  0.00    +0.000 OA
ATOM     14  H   UNL     1       0.809  -1.903   0.454  0.00  0.00    +0.000 HD
BRANCH  11  15
ATOM     15  C   UNL     1       0.566  -2.068   2.602  0.00  0.00    +0.000 C 
BRANCH  15  16
ATOM     16  C   UNL     1       1.072  -0.675   2.939  0.00  0.00    +0.000 C 
BRANCH  16  18
ATOM     17  C   UNL     1       1.072   0.020   0.066  0.00  0.00    +0.000 C 
ATOM     18  S   UNL     1       0.469   0.502   1.703  0.00  0.00    +0.000 S 
ATOM     19  O   UNL     1       0.979   1.905   2.042  0.00  0.00    +0.000 OA
ATOM     20  O   UNL     1      -1.062   0.502   1.703  0.00  0.00    +0.000 OA
ENDBRANCH  16  18
ENDBRANCH  15  16
ENDBRANCH  11  15
ENDBRANCH   1  12
BRANCH   7  21
ATOM     21  C   UNL     1      -1.492  -7.503   2.917  0.00  0.00    +0.000 C 
BRANCH  21  22
ATOM     22  C   UNL     1      -2.834  -7.590   2.209  0.00  0.00    +0.000 A 
ATOM     23  C   UNL     1      -2.893  -7.562   0.771  0.00  0.00    +0.000 A 
ATOM     24  C   UNL     1      -1.680  -7.452   0.002  0.00  0.00    +0.000 A 
ATOM     25  C   UNL     1      -1.740  -7.424  -1.437  0.00  0.00    +0.000 A 
ATOM     26 CL   UNL     1      -0.240  -7.288  -2.386  0.00  0.00    +0.000 Cl
ATOM     27  C   UNL     1      -3.012  -7.507  -2.107  0.00  0.00    +0.000 A 
ATOM     28  C   UNL     1      -4.047  -7.700   2.978  0.00  0.00    +0.000 A 
ATOM     29 CL   UNL     1      -3.974  -7.734   4.756  0.00  0.00    +0.000 Cl
ENDBRANCH  21  22
ENDBRANCH   7  21
TORSDOF 6
