REMARK  Name = 
REMARK  8 active torsions:
REMARK  status: ('A' for Active; 'I' for Inactive)
REMARK    1  A    between atoms: C_1  and  C_2
REMARK    2  A    between atoms: C_2  and  C_3
REMARK    3  A    between atoms: C_2  and  C_16
REMARK    4  A    between atoms: N_5  and  C_6
REMARK    5  A    between atoms: C_9  and  S_10
REMARK    6  A    between atoms: S_10  and  N_11
REMARK    7  A    between atoms: C_20  and  C_21
REMARK    8  A    between atoms: C_21  and  C_23
REMARK                            x       y       z     vdW  Elec       q    Type
REMARK                         _______ _______ _______ _____ _____    ______ ____
ROOT
ATOM      1  C   UNL     1       1.058  -0.020  -0.079  0.00  0.00    +0.000 C 
ATOM      2  C   UNL     1       0.551  -1.428   0.188  0.00  0.00    +0.000 C 
ENDROOT
BRANCH   2   3
ATOM      3  C   UNL     1      -0.969  -1.428   0.188  0.00  0.00    +0.000 A 
ATOM      4  C   UNL     1      -1.689  -0.614   1.133  0.00  0.00    +0.000 A 
ATOM      5  C   UNL     1      -0.969   0.201   2.078  0.00  0.00    +0.000 A 
ATOM      6  C   UNL     1      -1.689   1.015   3.023  0.00  0.00    +0.000 A 
ATOM      7  C   UNL     1      -0.969   1.829   3.968  0.00  0.00    +0.000 A 
ATOM      8  C   UNL     1      -1.689  -2.242  -0.757  0.00  0.00    +0.000 A 
BRANCH   7   9
ATOM      9  C   UNL     1       0.551   1.829   3.968  0.00  0.00    +0.000 C 
ATOM     10  O   UNL     1       1.187   1.110   3.134  0.00  0.00    +0.000 OA
BRANCH   9  11
ATOM     11  C   UNL     1       1.311   2.688   4.965  0.00  0.00    +0.000 A 
ATOM     12  C   UNL     1       2.751   2.688   4.965  0.00  0.00    +0.000 A 
ATOM     13  C   UNL     1       3.471   1.874   4.020  0.00  0.00    +0.000 A 
ATOM     14  C   UNL     1       4.912   1.874   4.020  0.00  0.00    +0.000 A 
ATOM     15  C   UNL     1       5.632   1.060   3.075  0.00  0.00    +0.000 A 
ATOM     16  C   UNL     1       0.591   3.502   5.910  0.00  0.00    +0.000 A 
ENDBRANCH   9  11
ENDBRANCH   7   9
ENDBRANCH   2   3
BRANCH   2  17
ATOM     17  C   UNL     1       1.058  -1.900   1.541  0.00  0.00    +0.000 C 
ATOM     18  O   UNL     1       0.232  -2.219   2.453  0.00  0.00    +0.000 OA
ATOM     19  N   UNL     1       2.503  -1.989   1.795  0.00  0.00    +0.000 N 
ATOM     20  H   UNL     1       2.843  -2.306   2.703  0.00  0.00    +0.000 HD
BRANCH  19  21
ATOM     21  C   UNL     1       3.458  -1.620   0.740  0.00  0.00    +0.000 A 
ATOM     22  C   UNL     1       2.978  -1.173  -0.542  0.00  0.00    +0.000 A 
ATOM     23  C   UNL     1       1.562  -1.086  -0.790  0.00  0.00    +0.000 A 
ATOM     24  C   UNL     1       1.082  -0.638  -2.072  0.00  0.00    +0.000 A 
ATOM     25  C   UNL     1       2.018  -0.278  -3.106  0.00  0.00    +0.000 A 
ATOM     26  C   UNL     1       4.874  -1.707   0.988  0.00  0.00    +0.000 A 
BRANCH  24  27
ATOM     27  S   UNL     1      -0.697  -0.529  -2.385  0.00  0.00    +0.000 S 
ATOM     28  O   UNL     1      -1.067  -1.445  -3.554  0.00  0.00    +0.000 OA
ATOM     29  O   UNL     1      -1.463  -0.966  -1.133  0.00  0.00    +0.000 OA
BRANCH  27  30
ATOM     30  N   UNL     1      -1.122   1.132  -2.782  0.00  0.00    +0.000 NA
ATOM     31  H   UNL     1      -2.125   1.193  -2.958  0.00  0.00    +0.000 HD
ATOM     32  H   UNL     1      -0.876   1.742  -2.003  0.00  0.00    +0.000 HD
ENDBRANCH  27  30
ENDBRANCH  24  27
ENDBRANCH  19  21
ENDBRANCH   2  17
TORSDOF 7
