REMARK  Name = 
REMARK  8 active torsions:
REMARK  status: ('A' for Active; 'I' for Inactive)
REMARK    1  A    between atoms: C_1  and  O_2
REMARK    2  A    between atoms: O_2  and  C_3
REMARK    3  A    between atoms: C_6  and  C_7
REMARK    4  A    between atoms: N_9  and  C_10
REMARK    5  A    between atoms: C_10  and  N_12
REMARK    6  A    between atoms: N_12  and  N_13
REMARK    7  A    between atoms: C_14  and  C_16
REMARK    8  A    between atoms: C_21  and  C_22
REMARK                            x       y       z     vdW  Elec       q    Type
REMARK                         _______ _______ _______ _____ _____    ______ ____
ROOT
ATOM      1  C   UNL     1      -1.633   2.448   3.511  0.00  0.00    +0.000 C 
ATOM      2  S   UNL     1      -2.024   3.635   2.481  0.00  0.00    +0.000 S 
ENDROOT
BRANCH   1   5
ATOM      3  C   UNL     1      -1.768   1.408   5.832  0.00  0.00    +0.000 C 
ATOM      4  O   UNL     1      -2.191   1.441   7.030  0.00  0.00    +0.000 OA
ATOM      5  N   UNL     1      -2.123   2.486   4.897  0.00  0.00    +0.000 N 
ATOM      6  H   UNL     1      -2.709   3.260   5.209  0.00  0.00    +0.000 HD
BRANCH   3  10
ATOM      7  C   UNL     1       0.894  -0.912   2.210  0.00  0.00    +0.000 A 
ATOM      8  C   UNL     1       0.414  -0.875   3.568  0.00  0.00    +0.000 A 
ATOM      9  C   UNL     1      -0.414   0.218   4.009  0.00  0.00    +0.000 A 
ATOM     10  C   UNL     1      -0.894   0.255   5.366  0.00  0.00    +0.000 A 
ATOM     11  C   UNL     1      -0.546  -0.800   6.282  0.00  0.00    +0.000 A 
ATOM     12  C   UNL     1       1.722  -2.005   1.769  0.00  0.00    +0.000 A 
BRANCH   7  14
ATOM     13  C   UNL     1       1.025   0.092  -0.031  0.00  0.00    +0.000 C 
ATOM     14  O   UNL     1       0.551   0.129   1.307  0.00  0.00    +0.000 OA
ENDBRANCH   7  14
ENDBRANCH   3  10
ENDBRANCH   1   5
BRANCH   1  15
ATOM     15  N   UNL     1      -0.788   1.332   3.061  0.00  0.00    +0.000 N 
ATOM     16  H   UNL     1      -0.448   1.306   2.100  0.00  0.00    +0.000 HD
BRANCH  15  17
ATOM     17  N   UNL     1      -0.445   0.292   3.964  0.00  0.00    +0.000 N 
ATOM     18  C   UNL     1       0.400  -0.824   3.514  0.00  0.00    +0.000 C 
ATOM     19  O   UNL     1       0.707  -1.755   4.323  0.00  0.00    +0.000 OA
ATOM     20  H   UNL     1      -0.785   0.318   4.926  0.00  0.00    +0.000 HD
BRANCH  18  21
ATOM     21  C   UNL     1       0.907  -0.863   2.082  0.00  0.00    +0.000 A 
ATOM     22  C   UNL     1       1.735  -1.956   1.640  0.00  0.00    +0.000 A 
ATOM     23  C   UNL     1       2.083  -3.011   2.556  0.00  0.00    +0.000 A 
ATOM     24  C   UNL     1       2.911  -4.104   2.115  0.00  0.00    +0.000 A 
ATOM     25  C   UNL     1       3.259  -5.159   3.031  0.00  0.00    +0.000 A 
ATOM     26  C   UNL     1       0.559   0.193   1.165  0.00  0.00    +0.000 A 
ATOM     27  C   UNL     1      -0.315   1.346   1.631  0.00  0.00    +0.000 C 
ENDBRANCH  18  21
ENDBRANCH  15  17
ENDBRANCH   1  15
TORSDOF 6
