REMARK  Name = 
REMARK  9 active torsions:
REMARK  status: ('A' for Active; 'I' for Inactive)
REMARK    1  A    between atoms: C_1  and  C_2
REMARK    2  A    between atoms: C_2  and  S_3
REMARK    3  A    between atoms: S_3  and  C_4
REMARK    4  A    between atoms: C_7  and  C_8
REMARK    5  A    between atoms: C_10  and  N_11
REMARK    6  A    between atoms: C_17  and  C_18
REMARK    7  A    between atoms: C_22  and  C_23
REMARK    8  A    between atoms: N_25  and  C_26
REMARK    9  A    between atoms: N_25  and  C_27
REMARK                            x       y       z     vdW  Elec       q    Type
REMARK                         _______ _______ _______ _____ _____    ______ ____
ROOT
ATOM      1  C   UNL     1       2.810  -1.836  -7.427  0.00  0.00    +0.000 A 
ATOM      2  C   UNL     1       1.369  -1.836  -7.427  0.00  0.00    +0.000 A 
ATOM      3  C   UNL     1       0.649  -1.335  -6.284  0.00  0.00    +0.000 A 
ATOM      4  C   UNL     1       1.369  -0.835  -5.142  0.00  0.00    +0.000 A 
ATOM      5  N   UNL     1       0.673  -0.350  -4.037  0.00  0.00    +0.000 NA
ATOM      6  C   UNL     1       1.369   0.134  -2.932  0.00  0.00    +0.000 A 
ATOM      7  C   UNL     1       2.810   0.134  -2.932  0.00  0.00    +0.000 A 
ATOM      8  N   UNL     1       2.762  -0.835  -5.142  0.00  0.00    +0.000 N 
ATOM      9  C   UNL     1       3.530  -2.336  -8.569  0.00  0.00    +0.000 A 
ENDROOT
BRANCH   1  13
ATOM     10  C   UNL     1       2.850   0.194  -2.794  0.00  0.00    +0.000 A 
ATOM     11  C   UNL     1       3.570  -0.306  -3.936  0.00  0.00    +0.000 A 
ATOM     12  C   UNL     1       2.850  -0.807  -5.079  0.00  0.00    +0.000 A 
ATOM     13  C   UNL     1       3.570  -1.307  -6.221  0.00  0.00    +0.000 A 
ATOM     14  C   UNL     1       5.010  -1.307  -6.221  0.00  0.00    +0.000 A 
ATOM     15  C   UNL     1       3.570   0.695  -1.651  0.00  0.00    +0.000 A 
BRANCH  10  16
ATOM     16  S   UNL     1       1.040   0.194  -2.794  0.00  0.00    +0.000 S 
BRANCH  16  18
ATOM     17  C   UNL     1       0.943   0.030  -0.076  0.00  0.00    +0.000 C 
ATOM     18  C   UNL     1       0.436   0.879  -1.231  0.00  0.00    +0.000 C 
ENDBRANCH  16  18
ENDBRANCH  10  16
ENDBRANCH   1  13
BRANCH   7  19
ATOM     19  C   UNL     1       3.570  -0.395  -4.138  0.00  0.00    +0.000 A 
ATOM     20  C   UNL     1       5.010  -0.395  -4.138  0.00  0.00    +0.000 A 
ATOM     21  C   UNL     1       5.730   0.106  -2.996  0.00  0.00    +0.000 A 
ATOM     22  C   UNL     1       7.170   0.106  -2.996  0.00  0.00    +0.000 A 
ATOM     23  C   UNL     1       7.890   0.607  -1.853  0.00  0.00    +0.000 A 
ATOM     24  C   UNL     1       2.850  -0.895  -5.280  0.00  0.00    +0.000 A 
BRANCH  23  25
ATOM     25  C   UNL     1       7.130   1.135  -0.647  0.00  0.00    +0.000 C 
ATOM     26  O   UNL     1       5.859   1.135  -0.647  0.00  0.00    +0.000 OA
ATOM     27  N   UNL     1       7.865   1.646   0.519  0.00  0.00    +0.000 N 
ATOM     28  C   UNL     1       9.335   1.646   0.519  0.00  0.00    +0.000 C 
ATOM     29  C   UNL     1       7.130   2.157   1.685  0.00  0.00    +0.000 C 
ENDBRANCH  23  25
ENDBRANCH   7  19
BRANCH   3  30
ATOM     30  N   UNL     1      -0.821  -1.335  -6.284  0.00  0.00    +0.000 N 
ATOM     31  C   UNL     1      -1.556  -0.824  -5.118  0.00  0.00    +0.000 C 
ATOM     32  O   UNL     1      -2.827  -0.824  -5.118  0.00  0.00    +0.000 OA
ATOM     33  H   UNL     1      -1.331  -1.690  -7.093  0.00  0.00    +0.000 HD
ENDBRANCH   3  30
TORSDOF 6
