REMARK  Name = 
REMARK  10 active torsions:
REMARK  status: ('A' for Active; 'I' for Inactive)
REMARK    1  A    between atoms: C_1  and  C_2
REMARK    2  A    between atoms: C_6  and  C_7
REMARK    3  A    between atoms: C_8  and  N_9
REMARK    4  A    between atoms: N_16  and  C_17
REMARK    5  A    between atoms: C_20  and  O_21
REMARK    6  A    between atoms: O_21  and  C_22
REMARK    7  A    between atoms: C_22  and  C_23
REMARK    8  A    between atoms: C_23  and  N_24
REMARK    9  A    between atoms: N_24  and  C_25
REMARK   10  A    between atoms: N_24  and  C_26
REMARK                            x       y       z     vdW  Elec       q    Type
REMARK                         _______ _______ _______ _____ _____    ______ ____
ROOT
ATOM      1  N   UNL     1      -0.642   2.166   0.953  0.00  0.00    +0.000 N 
ATOM      2  C   UNL     1      -1.443   3.232   1.356  0.00  0.00    +0.000 A 
ATOM      3  O   UNL     1      -1.867   3.290   2.553  0.00  0.00    +0.000 OA
ATOM      4  C   UNL     1      -1.791   4.267   0.418  0.00  0.00    +0.000 A 
ATOM      5  C   UNL     1      -2.619   5.369   0.835  0.00  0.00    +0.000 A 
ATOM      6  N   UNL     1      -3.083   5.433   2.147  0.00  0.00    +0.000 NA
ATOM      7  C   UNL     1      -2.747   4.432   3.055  0.00  0.00    +0.000 A 
ATOM      8  N   UNL     1      -1.902   3.307   2.628  0.00  0.00    +0.000 N 
ATOM      9  N   UNL     1      -3.211   4.496   4.366  0.00  0.00    +0.000 NA
ATOM     10  C   UNL     1      -1.311   4.201  -0.938  0.00  0.00    +0.000 A 
ATOM     11  N   UNL     1      -0.510   3.135  -1.342  0.00  0.00    +0.000 N 
ATOM     12  C   UNL     1      -0.046   3.071  -2.654  0.00  0.00    +0.000 A 
ATOM     13  C   UNL     1       0.782   1.969  -3.071  0.00  0.00    +0.000 A 
ATOM     14  C   UNL     1       1.130   0.934  -2.133  0.00  0.00    +0.000 A 
ATOM     15  C   UNL     1       1.958  -0.168  -2.551  0.00  0.00    +0.000 A 
ATOM     16  C   UNL     1       2.306  -1.204  -1.612  0.00  0.00    +0.000 A 
ATOM     17  C   UNL     1      -0.394   4.106  -3.592  0.00  0.00    +0.000 A 
ATOM     18  N   UNL     1      -1.194   5.172  -3.189  0.00  0.00    +0.000 NA
ATOM     19  C   UNL     1      -0.174   2.134  -0.435  0.00  0.00    +0.000 A 
ATOM     20  H   UNL     1      -1.562   3.260   1.668  0.00  0.00    +0.000 HD
ENDROOT
BRANCH   1  28
ATOM     21  C   UNL     1       1.048  -0.063   0.062  0.00  0.00    +0.000 C 
ATOM     22  C   UNL     1       0.541   0.007   1.493  0.00  0.00    +0.000 A 
ATOM     23  C   UNL     1       0.889  -1.028   2.431  0.00  0.00    +0.000 A 
ATOM     24  C   UNL     1       1.717  -2.130   2.014  0.00  0.00    +0.000 A 
ATOM     25  C   UNL     1       2.065  -3.166   2.952  0.00  0.00    +0.000 A 
ATOM     26  C   UNL     1       2.893  -4.267   2.535  0.00  0.00    +0.000 A 
ATOM     27  C   UNL     1       3.399  -4.338   1.103  0.00  0.00    +0.000 C 
ATOM     28  C   UNL     1      -0.287   1.109   1.911  0.00  0.00    +0.000 A 
ENDBRANCH   1  28
BRANCH   8  29
ATOM     29  C   UNL     1      -1.546   2.250   3.586  0.00  0.00    +0.000 A 
ATOM     30  C   UNL     1      -2.026   2.317   4.943  0.00  0.00    +0.000 A 
ATOM     31  C   UNL     1      -2.854   3.419   5.360  0.00  0.00    +0.000 A 
ATOM     32  C   UNL     1      -3.335   3.485   6.717  0.00  0.00    +0.000 A 
ATOM     33  C   UNL     1      -2.987   2.450   7.655  0.00  0.00    +0.000 A 
ATOM     34  C   UNL     1      -0.718   1.148   3.169  0.00  0.00    +0.000 A 
BRANCH  32  35
ATOM     35  O   UNL     1      -4.151   4.572   7.128  0.00  0.00    +0.000 OA
BRANCH  35  36
ATOM     36  C   UNL     1      -4.494   5.592   6.203  0.00  0.00    +0.000 C 
BRANCH  36  37
ATOM     37  C   UNL     1      -3.227   6.258   5.691  0.00  0.00    +0.000 C 
BRANCH  37  38
ATOM     38  N   UNL     1      -2.382   5.257   5.024  0.00  0.00    +0.000 NA
ATOM     39  C   UNL     1      -1.157   5.901   4.529  0.00  0.00    +0.000 C 
ATOM     40  C   UNL     1      -2.027   4.200   5.982  0.00  0.00    +0.000 C 
ENDBRANCH  37  38
ENDBRANCH  36  37
ENDBRANCH  35  36
ENDBRANCH  32  35
ENDBRANCH   8  29
TORSDOF 6
