REMARK  Name = 
REMARK  9 active torsions:
REMARK  status: ('A' for Active; 'I' for Inactive)
REMARK    1  A    between atoms: C_1  and  C_2
REMARK    2  A    between atoms: C_2  and  O_3
REMARK    3  A    between atoms: O_3  and  C_4
REMARK    4  A    between atoms: C_7  and  N_8
REMARK    5  A    between atoms: C_9  and  C_11
REMARK    6  A    between atoms: C_12  and  C_13
REMARK    7  A    between atoms: C_16  and  O_17
REMARK    8  A    between atoms: O_17  and  C_18
REMARK    9  A    between atoms: C_21  and  N_22
REMARK                            x       y       z     vdW  Elec       q    Type
REMARK                         _______ _______ _______ _____ _____    ______ ____
ROOT
ATOM      1  N   UNL     1       1.396  -4.900  -5.599  0.00  0.00    +0.000 N 
ATOM      2  C   UNL     1       1.886  -5.973  -6.475  0.00  0.00    +0.000 C 
ATOM      3  O   UNL     1       1.060  -6.722  -7.086  0.00  0.00    +0.000 OA
ATOM      4  H   UNL     1       0.393  -4.755  -5.481  0.00  0.00    +0.000 HD
ENDROOT
BRANCH   1   8
ATOM      5  C   UNL     1       2.327  -1.081  -2.485  0.00  0.00    +0.000 A 
ATOM      6  C   UNL     1       2.807  -2.133  -3.343  0.00  0.00    +0.000 A 
ATOM      7  C   UNL     1       1.871  -2.982  -4.035  0.00  0.00    +0.000 A 
ATOM      8  C   UNL     1       2.351  -4.034  -4.893  0.00  0.00    +0.000 A 
ATOM      9  C   UNL     1       3.767  -4.238  -5.059  0.00  0.00    +0.000 A 
ATOM     10  C   UNL     1       3.263  -0.233  -1.793  0.00  0.00    +0.000 A 
BRANCH   9  11
ATOM     11  N   UNL     1       4.257  -5.312  -5.935  0.00  0.00    +0.000 N 
ATOM     12  O   UNL     1       3.460  -6.034  -6.524  0.00  0.00    +0.000 OA
ATOM     13  O   UNL     1       5.604  -5.506  -6.094  0.00  0.00    +0.000 OA
ENDBRANCH   9  11
BRANCH   5  14
ATOM     14  O   UNL     1       0.931  -0.880  -2.321  0.00  0.00    +0.000 OA
BRANCH  14  16
ATOM     15  C   UNL     1       0.964  -0.072  -0.060  0.00  0.00    +0.000 C 
ATOM     16  C   UNL     1       0.458   0.157  -1.474  0.00  0.00    +0.000 C 
ENDBRANCH  14  16
ENDBRANCH   5  14
ENDBRANCH   1   8
BRANCH   2  17
ATOM     17  C   UNL     1       3.380  -6.189  -6.651  0.00  0.00    +0.000 C 
ATOM     18  C   UNL     1       4.264  -5.387  -5.997  0.00  0.00    +0.000 C 
BRANCH  18  19
ATOM     19  C   UNL     1       5.759  -5.603  -6.173  0.00  0.00    +0.000 A 
ATOM     20  C   UNL     1       6.239  -6.655  -7.031  0.00  0.00    +0.000 A 
ATOM     21  C   UNL     1       5.303  -7.503  -7.723  0.00  0.00    +0.000 A 
ATOM     22  C   UNL     1       5.783  -8.555  -8.581  0.00  0.00    +0.000 A 
ATOM     23  C   UNL     1       7.199  -8.759  -8.748  0.00  0.00    +0.000 A 
ATOM     24  C   UNL     1       6.695  -4.754  -5.481  0.00  0.00    +0.000 A 
BRANCH  22  25
ATOM     25  O   UNL     1       4.860  -9.392  -9.264  0.00  0.00    +0.000 OA
ATOM     26  C   UNL     1       3.464  -9.191  -9.100  0.00  0.00    +0.000 C 
ENDBRANCH  22  25
ENDBRANCH  18  19
ENDBRANCH   2  17
TORSDOF 7
