REMARK  Name = 
REMARK  5 active torsions:
REMARK  status: ('A' for Active; 'I' for Inactive)
REMARK    1  A    between atoms: C_1  and  N_2
REMARK    2  A    between atoms: C_8  and  C_9
REMARK    3  A    between atoms: C_11  and  N_12
REMARK    4  A    between atoms: C_18  and  C_19
REMARK    5  A    between atoms: C_28  and  C_29
REMARK                            x       y       z     vdW  Elec       q    Type
REMARK                         _______ _______ _______ _____ _____    ______ ____
ROOT
ATOM      1  C   UNL     1      -0.403   3.573   2.339  0.00  0.00    +0.000 A 
ATOM      2  C   UNL     1      -0.883   4.733   3.045  0.00  0.00    +0.000 A 
ATOM      3  C   UNL     1      -1.711   5.697   2.367  0.00  0.00    +0.000 A 
ATOM      4  C   UNL     1      -2.059   5.501   0.983  0.00  0.00    +0.000 A 
ATOM      5  C   UNL     1      -1.579   4.341   0.278  0.00  0.00    +0.000 A 
ATOM      6  C   UNL     1       0.425   2.609   3.017  0.00  0.00    +0.000 A 
ATOM      7  C   UNL     1       0.932   1.385   2.272  0.00  0.00    +0.000 C 
ENDROOT
BRANCH   1  15
ATOM      8  C   UNL     1       1.006   0.063   0.077  0.00  0.00    +0.000 C 
ATOM      9  N   UNL     1       0.516   1.247   0.797  0.00  0.00    +0.000 N 
ATOM     10  C   UNL     1      -0.329   2.231   0.105  0.00  0.00    +0.000 A 
ATOM     11  N   UNL     1      -0.665   2.041  -1.233  0.00  0.00    +0.000 NA
ATOM     12  C   UNL     1      -1.466   2.974  -1.889  0.00  0.00    +0.000 A 
ATOM     13  C   UNL     1      -1.946   4.134  -1.183  0.00  0.00    +0.000 A 
ATOM     14  C   UNL     1      -1.598   4.330   0.201  0.00  0.00    +0.000 A 
ATOM     15  C   UNL     1      -0.770   3.366   0.879  0.00  0.00    +0.000 A 
ATOM     16  C   UNL     1      -0.290   2.206   0.173  0.00  0.00    +0.000 A 
ATOM     17  C   UNL     1      -0.638   2.010  -1.211  0.00  0.00    +0.000 A 
ATOM     18  C   UNL     1      -2.774   5.097  -1.861  0.00  0.00    +0.000 A 
ATOM     19  N   UNL     1      -0.793   3.353   0.788  0.00  0.00    +0.000 NA
ATOM     20  H   UNL     1       0.763   1.386   1.777  0.00  0.00    +0.000 HD
ENDBRANCH   1  15
BRANCH   3  21
ATOM     21  N   UNL     1      -2.201   6.881   3.087  0.00  0.00    +0.000 N 
ATOM     22  C   UNL     1      -3.046   7.865   2.395  0.00  0.00    +0.000 A 
ATOM     23  N   UNL     1      -3.383   7.675   1.057  0.00  0.00    +0.000 NA
ATOM     24  C   UNL     1      -4.184   8.607   0.401  0.00  0.00    +0.000 A 
ATOM     25  C   UNL     1      -4.531   8.411  -0.982  0.00  0.00    +0.000 A 
ATOM     26  C   UNL     1      -4.051   7.251  -1.688  0.00  0.00    +0.000 A 
ATOM     27  C   UNL     1      -4.399   7.055  -3.072  0.00  0.00    +0.000 A 
ATOM     28  C   UNL     1      -5.227   8.018  -3.750  0.00  0.00    +0.000 A 
ATOM     29  C   UNL     1      -4.664   9.767   1.107  0.00  0.00    +0.000 A 
ATOM     30  N   UNL     1      -3.511   8.987   3.078  0.00  0.00    +0.000 N 
ATOM     31  H   UNL     1      -1.955   7.020   4.067  0.00  0.00    +0.000 HD
ATOM     32  H   UNL     1      -3.264   9.126   4.058  0.00  0.00    +0.000 HD
BRANCH  27  33
ATOM     33  C   UNL     1      -3.893   5.830  -3.817  0.00  0.00    +0.000 C 
ATOM     34  F   UNL     1      -4.927   5.116  -4.251  0.00  0.00    +0.000 F 
ATOM     35  F   UNL     1      -3.154   6.216  -4.853  0.00  0.00    +0.000 F 
ATOM     36  F   UNL     1      -3.154   5.087  -2.997  0.00  0.00    +0.000 F 
ENDBRANCH  27  33
ENDBRANCH   3  21
TORSDOF 3
