REMARK  Name = 
REMARK  8 active torsions:
REMARK  status: ('A' for Active; 'I' for Inactive)
REMARK    1  A    between atoms: C_1  and  C_2
REMARK    2  A    between atoms: C_2  and  C_12
REMARK    3  A    between atoms: N_3  and  N_4
REMARK    4  A    between atoms: C_5  and  C_7
REMARK    5  A    between atoms: C_15  and  N_16
REMARK    6  A    between atoms: C_17  and  C_19
REMARK    7  A    between atoms: C_19  and  O_20
REMARK    8  A    between atoms: O_20  and  C_21
REMARK                            x       y       z     vdW  Elec       q    Type
REMARK                         _______ _______ _______ _____ _____    ______ ____
ROOT
ATOM      1  C   UNL     1       0.783   0.853  -2.471  0.00  0.00    +0.000 A 
ATOM      2  C   UNL     1       0.303   0.727  -3.823  0.00  0.00    +0.000 A 
ATOM      3  C   UNL     1      -0.525  -0.393  -4.191  0.00  0.00    +0.000 A 
ATOM      4  C   UNL     1      -1.005  -0.519  -5.543  0.00  0.00    +0.000 A 
ATOM      5  C   UNL     1      -0.658   0.474  -6.527  0.00  0.00    +0.000 A 
ATOM      6  C   UNL     1       1.611   1.972  -2.102  0.00  0.00    +0.000 A 
ENDROOT
BRANCH   4   7
ATOM      7  N   UNL     1      -1.851  -1.661  -5.920  0.00  0.00    +0.000 N 
ATOM      8  C   UNL     1      -2.341  -1.790  -7.300  0.00  0.00    +0.000 C 
ATOM      9  O   UNL     1      -3.071  -2.777  -7.625  0.00  0.00    +0.000 OA
ATOM     10  H   UNL     1      -2.097  -2.365  -5.223  0.00  0.00    +0.000 HD
BRANCH   8  11
ATOM     11  C   UNL     1      -1.973  -0.742  -8.337  0.00  0.00    +0.000 C 
BRANCH  11  12
ATOM     12  O   UNL     1      -2.455   0.527  -7.919  0.00  0.00    +0.000 OA
BRANCH  12  13
ATOM     13  C   UNL     1      -3.845   0.725  -7.709  0.00  0.00    +0.000 A 
ATOM     14  C   UNL     1      -4.333   2.012  -7.285  0.00  0.00    +0.000 A 
ATOM     15  C   UNL     1      -3.411   3.098  -7.075  0.00  0.00    +0.000 A 
ATOM     16  C   UNL     1      -3.899   4.385  -6.651  0.00  0.00    +0.000 A 
ATOM     17 CL   UNL     1      -2.760   5.728  -6.390  0.00  0.00    +0.000 Cl
ATOM     18  C   UNL     1      -5.309   4.586  -6.437  0.00  0.00    +0.000 A 
ATOM     19  C   UNL     1      -4.767  -0.361  -7.920  0.00  0.00    +0.000 A 
ENDBRANCH  12  13
ENDBRANCH  11  12
ENDBRANCH   8  11
ENDBRANCH   4   7
BRANCH   1  21
ATOM     20  C   UNL     1       0.922  -0.062  -0.006  0.00  0.00    +0.000 C 
ATOM     21  C   UNL     1       0.415  -0.196  -1.433  0.00  0.00    +0.000 C 
ATOM     22  N   UNL     1      -0.341  -1.218  -1.770  0.00  0.00    +0.000 NA
BRANCH  22  23
ATOM     23  N   UNL     1      -0.814  -1.342  -3.103  0.00  0.00    +0.000 N 
ATOM     24  C   UNL     1      -0.459  -0.329  -4.106  0.00  0.00    +0.000 C 
ATOM     25  O   UNL     1      -0.883  -0.440  -5.300  0.00  0.00    +0.000 OA
ATOM     26  H   UNL     1      -1.401  -2.135  -3.364  0.00  0.00    +0.000 HD
BRANCH  24  27
ATOM     27  C   UNL     1       0.415   0.853  -3.717  0.00  0.00    +0.000 A 
ATOM     28  C   UNL     1       0.763   1.846  -4.701  0.00  0.00    +0.000 A 
ATOM     29  C   UNL     1       0.283   1.720  -6.053  0.00  0.00    +0.000 A 
ATOM     30  C   UNL     1       0.631   2.713  -7.036  0.00  0.00    +0.000 A 
ATOM     31  S   UNL     1       0.986   1.003  -2.107  0.00  0.00    +0.000 S 
ENDBRANCH  24  27
ENDBRANCH  22  23
ENDBRANCH   1  21
TORSDOF 7
