REMARK  Name = 
REMARK  3 active torsions:
REMARK  status: ('A' for Active; 'I' for Inactive)
REMARK    1  A    between atoms: C_1  and  C_2
REMARK    2  A    between atoms: C_2  and  C_3
REMARK    3  A    between atoms: C_13  and  C_14
REMARK                            x       y       z     vdW  Elec       q    Type
REMARK                         _______ _______ _______ _____ _____    ______ ____
ROOT
ATOM      1  C   UNL     1       1.100  -0.004  -0.005  0.00  0.00    +0.000 C 
ATOM      2  C   UNL     1       0.593   0.501   1.336  0.00  0.00    +0.000 C 
ATOM      3  C   UNL     1      -0.927   0.501   1.336  0.00  0.00    +0.000 C 
ATOM      4  C   UNL     1       1.100  -0.407   2.445  0.00  0.00    +0.000 C 
ATOM      5  C   UNL     1       1.882  -1.478   2.142  0.00  0.00    +0.000 C 
ATOM      6  C   UNL     1       2.389  -2.387   3.250  0.00  0.00    +0.000 A 
ATOM      7  C   UNL     1       2.041  -2.114   4.621  0.00  0.00    +0.000 A 
ATOM      8  C   UNL     1       2.521  -2.974   5.671  0.00  0.00    +0.000 A 
ATOM      9  C   UNL     1       3.349  -4.108   5.351  0.00  0.00    +0.000 A 
ATOM     10  C   UNL     1       3.829  -4.969   6.401  0.00  0.00    +0.000 A 
ATOM     11  C   UNL     1       2.480  -5.809  10.012  0.00  0.00    +0.000 A 
ATOM     12  O   UNL     1       1.664  -4.649  10.071  0.00  0.00    +0.000 OA
ATOM     13  C   UNL     1       1.321  -3.961   8.877  0.00  0.00    +0.000 C 
ATOM     14  C   UNL     1       2.588  -3.484   8.185  0.00  0.00    +0.000 C 
ATOM     15  C   UNL     1       3.462  -4.681   7.847  0.00  0.00    +0.000 C 
ATOM     16  O   UNL     1       3.885  -5.440   8.774  0.00  0.00    +0.000 OA
ATOM     17  O   UNL     1       1.066   1.822   1.554  0.00  0.00    +0.000 OA
ENDROOT
BRANCH  13  18
ATOM     18  C   UNL     1       0.561  -4.898   7.953  0.00  0.00    +0.000 A 
ATOM     19  C   UNL     1      -0.686  -5.535   8.290  0.00  0.00    +0.000 A 
ATOM     20  C   UNL     1      -1.246  -5.369   9.606  0.00  0.00    +0.000 A 
ATOM     21  C   UNL     1      -2.494  -6.005   9.944  0.00  0.00    +0.000 A 
ATOM     22  C   UNL     1      -3.054  -5.839  11.260  0.00  0.00    +0.000 A 
ATOM     23  C   UNL     1       1.122  -5.064   6.637  0.00  0.00    +0.000 A 
ENDBRANCH  13  18
TORSDOF 1
