REMARK  Name = 
REMARK  2 active torsions:
REMARK  status: ('A' for Active; 'I' for Inactive)
REMARK    1  A    between atoms: C_3  and  N_4
REMARK    2  A    between atoms: C_7  and  O_8
REMARK                            x       y       z     vdW  Elec       q    Type
REMARK                         _______ _______ _______ _____ _____    ______ ____
ROOT
ATOM      1  O   UNL     1       0.929  -0.024   0.066  0.00  0.00    +0.000 OA
ATOM      2  C   UNL     1       2.200  -0.024   0.066  0.00  0.00    +0.000 C 
ATOM      3  C   UNL     1       2.960   0.823  -0.942  0.00  0.00    +0.000 C 
ATOM      4  C   UNL     1       4.320   0.823  -0.942  0.00  0.00    +0.000 C 
ATOM      5  C   UNL     1       5.080   1.670  -1.950  0.00  0.00    +0.000 A 
ATOM      6  C   UNL     1       6.521   1.670  -1.950  0.00  0.00    +0.000 A 
ATOM      7  C   UNL     1       7.241   0.867  -0.995  0.00  0.00    +0.000 A 
ATOM      8  C   UNL     1       8.681   0.867  -0.995  0.00  0.00    +0.000 A 
ATOM      9  C   UNL     1       9.401   0.065  -0.040  0.00  0.00    +0.000 A 
ATOM     10  C   UNL     1       8.681  -0.737   0.915  0.00  0.00    +0.000 A 
ATOM     11  C   UNL     1       7.241  -0.737   0.915  0.00  0.00    +0.000 A 
ATOM     12  C   UNL     1       6.521  -1.540   1.870  0.00  0.00    +0.000 A 
ATOM     13  C   UNL     1      11.561   0.867  -0.995  0.00  0.00    +0.000 A 
ATOM     14  C   UNL     1      10.841   0.065  -0.040  0.00  0.00    +0.000 A 
ENDROOT
BRANCH   3  15
ATOM     15  N   UNL     1       2.225   1.642  -1.916  0.00  0.00    +0.000 N 
ATOM     16  O   UNL     1       2.838   2.325  -2.729  0.00  0.00    +0.000 OA
ATOM     17  O   UNL     1       0.855   1.642  -1.916  0.00  0.00    +0.000 OA
ENDBRANCH   3  15
BRANCH   4  18
ATOM     18  O   UNL     1       5.030   0.032  -0.000  0.00  0.00    +0.000 OA
ATOM     19  H   UNL     1       4.530  -0.525   0.663  0.00  0.00    +0.000 HD
ENDBRANCH   4  18
TORSDOF 2
