MODEL 1
REMARK VINA RESULT:    -6.236      0.000      0.000
REMARK INTER + INTRA:          -9.770
REMARK INTER:                  -8.058
REMARK INTRA:                  -1.711
REMARK UNBOUND:                -1.711
REMARK  Name = 
REMARK  6 active torsions:
REMARK  status: ('A' for Active; 'I' for Inactive)
REMARK    1  A    between atoms: C_1  and  C_2
REMARK    2  A    between atoms: C_6  and  C_7
REMARK    3  A    between atoms: N_9  and  N_10
REMARK    4  A    between atoms: N_10  and  C_11
REMARK    5  A    between atoms: C_11  and  N_13
REMARK    6  A    between atoms: C_14  and  C_16
REMARK                            x       y       z     vdW  Elec       q    Type
REMARK                         _______ _______ _______ _____ _____    ______ ____
ROOT
ATOM      1  N   UNL     1      30.812 -10.462  27.215  0.00  0.00    +0.000 N 
ATOM      2  H   UNL     1      29.941 -10.199  27.677  0.00  0.00    +0.000 HD
ENDROOT
BRANCH   1   5
ATOM      3  C   UNL     1      30.598  -9.870  24.793  0.00  0.00    +0.000 C 
ATOM      4  O   UNL     1      30.589 -10.232  23.574  0.00  0.00    +0.000 OA
ATOM      5  N   UNL     1      30.801 -10.867  25.854  0.00  0.00    +0.000 N 
ATOM      6  H   UNL     1      30.934 -11.849  25.613  0.00  0.00    +0.000 HD
BRANCH   3  12
ATOM      7  C   UNL     1      25.673 -10.609  25.077  0.00  0.00    +0.000 C 
ATOM      8  C   UNL     1      25.474  -9.146  25.438  0.00  0.00    +0.000 A 
ATOM      9  C   UNL     1      26.610  -8.268  25.537  0.00  0.00    +0.000 A 
ATOM     10  C   UNL     1      27.936  -8.777  25.295  0.00  0.00    +0.000 A 
ATOM     11  C   UNL     1      29.074  -7.898  25.395  0.00  0.00    +0.000 A 
ATOM     12  C   UNL     1      30.400  -8.407  25.153  0.00  0.00    +0.000 A 
ATOM     13  C   UNL     1      24.149  -8.638  25.681  0.00  0.00    +0.000 A 
ENDBRANCH   3  12
ENDBRANCH   1   5
BRANCH   1  14
ATOM     14  C   UNL     1      32.078 -10.424  27.961  0.00  0.00    +0.000 C 
ATOM     15  S   UNL     1      33.488 -10.443  27.163  0.00  0.00    +0.000 S 
BRANCH  14  16
ATOM     16  N   UNL     1      32.065 -10.366  29.429  0.00  0.00    +0.000 N 
ATOM     17  C   UNL     1      31.920  -9.072  30.113  0.00  0.00    +0.000 C 
ATOM     18  O   UNL     1      31.910  -9.023  31.383  0.00  0.00    +0.000 OA
ATOM     19  H   UNL     1      32.157 -11.223  29.974  0.00  0.00    +0.000 HD
BRANCH  17  20
ATOM     20  C   UNL     1      31.784  -7.795  29.301  0.00  0.00    +0.000 A 
ATOM     21  C   UNL     1      30.480  -7.324  28.913  0.00  0.00    +0.000 A 
ATOM     22  C   UNL     1      29.304  -8.064  29.295  0.00  0.00    +0.000 A 
ATOM     23  C   UNL     1      28.000  -7.593  28.907  0.00  0.00    +0.000 A 
ATOM     24  C   UNL     1      26.824  -8.332  29.288  0.00  0.00    +0.000 A 
ATOM     25  C   UNL     1      32.959  -7.055  28.919  0.00  0.00    +0.000 A 
ENDBRANCH  17  20
ENDBRANCH  14  16
ENDBRANCH   1  14
TORSDOF 5
ENDMDL
MODEL 2
REMARK VINA RESULT:    -6.185     23.366     25.968
REMARK INTER + INTRA:          -9.705
REMARK INTER:                  -9.149
REMARK INTRA:                  -0.556
REMARK UNBOUND:                -1.711
REMARK  Name = 
REMARK  6 active torsions:
REMARK  status: ('A' for Active; 'I' for Inactive)
REMARK    1  A    between atoms: C_1  and  C_2
REMARK    2  A    between atoms: C_6  and  C_7
REMARK    3  A    between atoms: N_9  and  N_10
REMARK    4  A    between atoms: N_10  and  C_11
REMARK    5  A    between atoms: C_11  and  N_13
REMARK    6  A    between atoms: C_14  and  C_16
REMARK                            x       y       z     vdW  Elec       q    Type
REMARK                         _______ _______ _______ _____ _____    ______ ____
ROOT
ATOM      1  N   UNL     1      37.576  10.950  41.934  0.00  0.00    +0.000 N 
ATOM      2  H   UNL     1      38.357  10.303  41.830  0.00  0.00    +0.000 HD
ENDROOT
BRANCH   1   5
ATOM      3  C   UNL     1      35.380   9.761  41.763  0.00  0.00    +0.000 C 
ATOM      4  O   UNL     1      34.294   9.552  41.137  0.00  0.00    +0.000 OA
ATOM      5  N   UNL     1      36.363  10.717  41.233  0.00  0.00    +0.000 N 
ATOM      6  H   UNL     1      36.174  11.213  40.363  0.00  0.00    +0.000 HD
BRANCH   3  12
ATOM      7  C   UNL     1      34.863   5.402  39.391  0.00  0.00    +0.000 C 
ATOM      8  C   UNL     1      35.147   4.663  40.689  0.00  0.00    +0.000 A 
ATOM      9  C   UNL     1      35.410   5.401  41.896  0.00  0.00    +0.000 A 
ATOM     10  C   UNL     1      35.405   6.842  41.874  0.00  0.00    +0.000 A 
ATOM     11  C   UNL     1      35.668   7.581  43.083  0.00  0.00    +0.000 A 
ATOM     12  C   UNL     1      35.663   9.021  43.061  0.00  0.00    +0.000 A 
ATOM     13  C   UNL     1      35.153   3.223  40.710  0.00  0.00    +0.000 A 
ENDBRANCH   3  12
ENDBRANCH   1   5
BRANCH   1  14
ATOM     14  C   UNL     1      37.706  12.125  42.807  0.00  0.00    +0.000 C 
ATOM     15  S   UNL     1      36.407  13.032  43.143  0.00  0.00    +0.000 S 
BRANCH  14  16
ATOM     16  N   UNL     1      39.016  12.477  43.375  0.00  0.00    +0.000 N 
ATOM     17  C   UNL     1      39.596  11.655  44.447  0.00  0.00    +0.000 C 
ATOM     18  O   UNL     1      40.728  11.960  44.939  0.00  0.00    +0.000 OA
ATOM     19  H   UNL     1      39.521  13.291  43.026  0.00  0.00    +0.000 HD
BRANCH  17  20
ATOM     20  C   UNL     1      38.842  10.442  44.967  0.00  0.00    +0.000 A 
ATOM     21  C   UNL     1      37.866  10.597  46.014  0.00  0.00    +0.000 A 
ATOM     22  C   UNL     1      37.604  11.900  46.569  0.00  0.00    +0.000 A 
ATOM     23  C   UNL     1      36.628  12.054  47.616  0.00  0.00    +0.000 A 
ATOM     24  C   UNL     1      36.366  13.357  48.171  0.00  0.00    +0.000 A 
ATOM     25  C   UNL     1      39.104   9.139  44.414  0.00  0.00    +0.000 A 
ENDBRANCH  17  20
ENDBRANCH  14  16
ENDBRANCH   1  14
TORSDOF 5
ENDMDL
MODEL 3
REMARK VINA RESULT:    -6.097     18.035     20.216
REMARK INTER + INTRA:          -9.590
REMARK INTER:                  -8.213
REMARK INTRA:                  -1.377
REMARK UNBOUND:                -1.711
REMARK  Name = 
REMARK  6 active torsions:
REMARK  status: ('A' for Active; 'I' for Inactive)
REMARK    1  A    between atoms: C_1  and  C_2
REMARK    2  A    between atoms: C_6  and  C_7
REMARK    3  A    between atoms: N_9  and  N_10
REMARK    4  A    between atoms: N_10  and  C_11
REMARK    5  A    between atoms: C_11  and  N_13
REMARK    6  A    between atoms: C_14  and  C_16
REMARK                            x       y       z     vdW  Elec       q    Type
REMARK                         _______ _______ _______ _____ _____    ______ ____
ROOT
ATOM      1  N   UNL     1      14.521   1.897  26.914  0.00  0.00    +0.000 N 
ATOM      2  H   UNL     1      13.584   2.227  26.684  0.00  0.00    +0.000 HD
ENDROOT
BRANCH   1   5
ATOM      3  C   UNL     1      14.363  -0.061  25.362  0.00  0.00    +0.000 C 
ATOM      4  O   UNL     1      14.715  -1.242  25.050  0.00  0.00    +0.000 OA
ATOM      5  N   UNL     1      14.914   0.577  26.566  0.00  0.00    +0.000 N 
ATOM      6  H   UNL     1      15.579   0.072  27.152  0.00  0.00    +0.000 HD
BRANCH   3  12
ATOM      7  C   UNL     1      10.599  -1.814  28.128  0.00  0.00    +0.000 C 
ATOM      8  C   UNL     1       9.607  -1.061  27.256  0.00  0.00    +0.000 A 
ATOM      9  C   UNL     1      10.078  -0.266  26.151  0.00  0.00    +0.000 A 
ATOM     10  C   UNL     1      11.489  -0.185  25.873  0.00  0.00    +0.000 A 
ATOM     11  C   UNL     1      11.960   0.610  24.768  0.00  0.00    +0.000 A 
ATOM     12  C   UNL     1      13.371   0.692  24.490  0.00  0.00    +0.000 A 
ATOM     13  C   UNL     1       8.197  -1.142  27.534  0.00  0.00    +0.000 A 
ENDBRANCH   3  12
ENDBRANCH   1   5
BRANCH   1  14
ATOM     14  C   UNL     1      15.465   2.786  27.606  0.00  0.00    +0.000 C 
ATOM     15  S   UNL     1      16.737   2.164  28.392  0.00  0.00    +0.000 S 
BRANCH  14  16
ATOM     16  N   UNL     1      15.255   4.241  27.584  0.00  0.00    +0.000 N 
ATOM     17  C   UNL     1      14.384   4.873  28.587  0.00  0.00    +0.000 C 
ATOM     18  O   UNL     1      14.202   6.131  28.568  0.00  0.00    +0.000 OA
ATOM     19  H   UNL     1      15.712   4.812  26.874  0.00  0.00    +0.000 HD
BRANCH  17  20
ATOM     20  C   UNL     1      13.702   4.021  29.645  0.00  0.00    +0.000 A 
ATOM     21  C   UNL     1      12.412   3.440  29.379  0.00  0.00    +0.000 A 
ATOM     22  C   UNL     1      11.767   3.666  28.110  0.00  0.00    +0.000 A 
ATOM     23  C   UNL     1      10.477   3.086  27.845  0.00  0.00    +0.000 A 
ATOM     24  C   UNL     1       9.832   3.311  26.577  0.00  0.00    +0.000 A 
ATOM     25  C   UNL     1      14.345   3.795  30.913  0.00  0.00    +0.000 A 
ENDBRANCH  17  20
ENDBRANCH  14  16
ENDBRANCH   1  14
TORSDOF 5
ENDMDL
MODEL 4
REMARK VINA RESULT:    -6.092      3.197      6.502
REMARK INTER + INTRA:          -9.584
REMARK INTER:                  -8.227
REMARK INTRA:                  -1.357
REMARK UNBOUND:                -1.711
REMARK  Name = 
REMARK  6 active torsions:
REMARK  status: ('A' for Active; 'I' for Inactive)
REMARK    1  A    between atoms: C_1  and  C_2
REMARK    2  A    between atoms: C_6  and  C_7
REMARK    3  A    between atoms: N_9  and  N_10
REMARK    4  A    between atoms: N_10  and  C_11
REMARK    5  A    between atoms: C_11  and  N_13
REMARK    6  A    between atoms: C_14  and  C_16
REMARK                            x       y       z     vdW  Elec       q    Type
REMARK                         _______ _______ _______ _____ _____    ______ ____
ROOT
ATOM      1  N   UNL     1      28.883  -8.174  29.963  0.00  0.00    +0.000 N 
ATOM      2  H   UNL     1      29.191  -7.545  29.223  0.00  0.00    +0.000 HD
ENDROOT
BRANCH   1   5
ATOM      3  C   UNL     1      31.238  -8.431  30.770  0.00  0.00    +0.000 C 
ATOM      4  O   UNL     1      32.095  -9.063  31.463  0.00  0.00    +0.000 OA
ATOM      5  N   UNL     1      29.840  -8.882  30.737  0.00  0.00    +0.000 N 
ATOM      6  H   UNL     1      29.557  -9.704  31.270  0.00  0.00    +0.000 HD
BRANCH   3  12
ATOM      7  C   UNL     1      33.401 -11.377  27.375  0.00  0.00    +0.000 C 
ATOM      8  C   UNL     1      33.822 -10.152  26.580  0.00  0.00    +0.000 A 
ATOM      9  C   UNL     1      33.481  -8.835  27.052  0.00  0.00    +0.000 A 
ATOM     10  C   UNL     1      32.741  -8.679  28.278  0.00  0.00    +0.000 A 
ATOM     11  C   UNL     1      32.400  -7.361  28.750  0.00  0.00    +0.000 A 
ATOM     12  C   UNL     1      31.660  -7.205  29.976  0.00  0.00    +0.000 A 
ATOM     13  C   UNL     1      34.561 -10.308  25.354  0.00  0.00    +0.000 A 
ENDBRANCH   3  12
ENDBRANCH   1   5
BRANCH   1  14
ATOM     14  C   UNL     1      27.448  -8.349  30.229  0.00  0.00    +0.000 C 
ATOM     15  S   UNL     1      26.953  -8.923  31.661  0.00  0.00    +0.000 S 
BRANCH  14  16
ATOM     16  N   UNL     1      26.461  -8.002  29.196  0.00  0.00    +0.000 N 
ATOM     17  C   UNL     1      26.141  -8.967  28.133  0.00  0.00    +0.000 C 
ATOM     18  O   UNL     1      25.288  -8.667  27.240  0.00  0.00    +0.000 OA
ATOM     19  H   UNL     1      25.999  -7.094  29.217  0.00  0.00    +0.000 HD
BRANCH  17  20
ATOM     20  C   UNL     1      26.830 -10.321  28.102  0.00  0.00    +0.000 A 
ATOM     21  C   UNL     1      28.058 -10.486  27.369  0.00  0.00    +0.000 A 
ATOM     22  C   UNL     1      28.633  -9.369  26.664  0.00  0.00    +0.000 A 
ATOM     23  C   UNL     1      29.860  -9.535  25.930  0.00  0.00    +0.000 A 
ATOM     24  C   UNL     1      30.435  -8.418  25.225  0.00  0.00    +0.000 A 
ATOM     25  C   UNL     1      26.257 -11.438  28.807  0.00  0.00    +0.000 A 
ENDBRANCH  17  20
ENDBRANCH  14  16
ENDBRANCH   1  14
TORSDOF 5
ENDMDL
MODEL 5
REMARK VINA RESULT:    -6.071     20.139     22.013
REMARK INTER + INTRA:          -9.557
REMARK INTER:                  -8.316
REMARK INTRA:                  -1.241
REMARK UNBOUND:                -1.711
REMARK  Name = 
REMARK  6 active torsions:
REMARK  status: ('A' for Active; 'I' for Inactive)
REMARK    1  A    between atoms: C_1  and  C_2
REMARK    2  A    between atoms: C_6  and  C_7
REMARK    3  A    between atoms: N_9  and  N_10
REMARK    4  A    between atoms: N_10  and  C_11
REMARK    5  A    between atoms: C_11  and  N_13
REMARK    6  A    between atoms: C_14  and  C_16
REMARK                            x       y       z     vdW  Elec       q    Type
REMARK                         _______ _______ _______ _____ _____    ______ ____
ROOT
ATOM      1  N   UNL     1      11.032   4.119  27.747  0.00  0.00    +0.000 N 
ATOM      2  H   UNL     1      11.764   3.521  27.364  0.00  0.00    +0.000 HD
ENDROOT
BRANCH   1   5
ATOM      3  C   UNL     1       9.205   2.520  27.139  0.00  0.00    +0.000 C 
ATOM      4  O   UNL     1       7.989   2.312  26.833  0.00  0.00    +0.000 OA
ATOM      5  N   UNL     1       9.673   3.887  27.404  0.00  0.00    +0.000 N 
ATOM      6  H   UNL     1       9.024   4.671  27.341  0.00  0.00    +0.000 HD
BRANCH   3  12
ATOM      7  C   UNL     1      10.388   3.121  22.330  0.00  0.00    +0.000 C 
ATOM      8  C   UNL     1      11.359   1.954  22.423  0.00  0.00    +0.000 A 
ATOM      9  C   UNL     1      11.522   1.251  23.669  0.00  0.00    +0.000 A 
ATOM     10  C   UNL     1      10.767   1.654  24.827  0.00  0.00    +0.000 A 
ATOM     11  C   UNL     1      10.931   0.950  26.074  0.00  0.00    +0.000 A 
ATOM     12  C   UNL     1      10.175   1.353  27.232  0.00  0.00    +0.000 A 
ATOM     13  C   UNL     1      12.114   1.552  21.265  0.00  0.00    +0.000 A 
ENDBRANCH   3  12
ENDBRANCH   1   5
BRANCH   1  14
ATOM     14  C   UNL     1      11.384   5.220  28.655  0.00  0.00    +0.000 C 
ATOM     15  S   UNL     1      10.451   5.540  29.940  0.00  0.00    +0.000 S 
BRANCH  14  16
ATOM     16  N   UNL     1      12.582   6.032  28.396  0.00  0.00    +0.000 N 
ATOM     17  C   UNL     1      13.875   5.638  28.976  0.00  0.00    +0.000 C 
ATOM     18  O   UNL     1      14.911   6.339  28.754  0.00  0.00    +0.000 OA
ATOM     19  H   UNL     1      12.517   6.867  27.816  0.00  0.00    +0.000 HD
BRANCH  17  20
ATOM     20  C   UNL     1      13.971   4.392  29.843  0.00  0.00    +0.000 A 
ATOM     21  C   UNL     1      14.159   3.103  29.230  0.00  0.00    +0.000 A 
ATOM     22  C   UNL     1      14.256   2.993  27.797  0.00  0.00    +0.000 A 
ATOM     23  C   UNL     1      14.444   1.703  27.186  0.00  0.00    +0.000 A 
ATOM     24  C   UNL     1      14.541   1.592  25.753  0.00  0.00    +0.000 A 
ATOM     25  C   UNL     1      13.874   4.502  31.275  0.00  0.00    +0.000 A 
ENDBRANCH  17  20
ENDBRANCH  14  16
ENDBRANCH   1  14
TORSDOF 5
ENDMDL
MODEL 6
REMARK VINA RESULT:    -6.050     25.583     28.566
REMARK INTER + INTRA:          -9.530
REMARK INTER:                  -7.963
REMARK INTRA:                  -1.566
REMARK UNBOUND:                -1.711
REMARK  Name = 
REMARK  6 active torsions:
REMARK  status: ('A' for Active; 'I' for Inactive)
REMARK    1  A    between atoms: C_1  and  C_2
REMARK    2  A    between atoms: C_6  and  C_7
REMARK    3  A    between atoms: N_9  and  N_10
REMARK    4  A    between atoms: N_10  and  C_11
REMARK    5  A    between atoms: C_11  and  N_13
REMARK    6  A    between atoms: C_14  and  C_16
REMARK                            x       y       z     vdW  Elec       q    Type
REMARK                         _______ _______ _______ _____ _____    ______ ____
ROOT
ATOM      1  N   UNL     1      40.023  11.763  42.755  0.00  0.00    +0.000 N 
ATOM      2  H   UNL     1      39.373  11.174  42.234  0.00  0.00    +0.000 HD
ENDROOT
BRANCH   1   5
ATOM      3  C   UNL     1      40.564   9.955  44.399  0.00  0.00    +0.000 C 
ATOM      4  O   UNL     1      41.381   9.430  45.218  0.00  0.00    +0.000 OA
ATOM      5  N   UNL     1      40.936  11.177  43.671  0.00  0.00    +0.000 N 
ATOM      6  H   UNL     1      41.849  11.604  43.823  0.00  0.00    +0.000 HD
BRANCH   3  12
ATOM      7  C   UNL     1      38.573  13.002  47.811  0.00  0.00    +0.000 C 
ATOM      8  C   UNL     1      37.210  12.367  47.582  0.00  0.00    +0.000 A 
ATOM      9  C   UNL     1      37.063  11.305  46.622  0.00  0.00    +0.000 A 
ATOM     10  C   UNL     1      38.206  10.844  45.877  0.00  0.00    +0.000 A 
ATOM     11  C   UNL     1      38.058   9.781  44.916  0.00  0.00    +0.000 A 
ATOM     12  C   UNL     1      39.202   9.320  44.171  0.00  0.00    +0.000 A 
ATOM     13  C   UNL     1      36.068  12.829  48.327  0.00  0.00    +0.000 A 
ENDBRANCH   3  12
ENDBRANCH   1   5
BRANCH   1  14
ATOM     14  C   UNL     1      40.012  13.220  42.558  0.00  0.00    +0.000 C 
ATOM     15  S   UNL     1      40.965  14.167  43.463  0.00  0.00    +0.000 S 
BRANCH  14  16
ATOM     16  N   UNL     1      39.137  13.818  41.539  0.00  0.00    +0.000 N 
ATOM     17  C   UNL     1      37.692  13.934  41.787  0.00  0.00    +0.000 C 
ATOM     18  O   UNL     1      36.936  14.450  40.906  0.00  0.00    +0.000 OA
ATOM     19  H   UNL     1      39.532  14.153  40.661  0.00  0.00    +0.000 HD
BRANCH  17  20
ATOM     20  C   UNL     1      37.104  13.434  43.097  0.00  0.00    +0.000 A 
ATOM     21  C   UNL     1      36.401  12.178  43.137  0.00  0.00    +0.000 A 
ATOM     22  C   UNL     1      36.255  11.395  41.936  0.00  0.00    +0.000 A 
ATOM     23  C   UNL     1      35.552  10.139  41.977  0.00  0.00    +0.000 A 
ATOM     24  C   UNL     1      35.406   9.357  40.776  0.00  0.00    +0.000 A 
ATOM     25  C   UNL     1      37.249  14.216  44.297  0.00  0.00    +0.000 A 
ENDBRANCH  17  20
ENDBRANCH  14  16
ENDBRANCH   1  14
TORSDOF 5
ENDMDL
MODEL 7
REMARK VINA RESULT:    -5.992      1.520      1.901
REMARK INTER + INTRA:          -9.455
REMARK INTER:                  -7.411
REMARK INTRA:                  -2.044
REMARK UNBOUND:                -1.711
REMARK  Name = 
REMARK  6 active torsions:
REMARK  status: ('A' for Active; 'I' for Inactive)
REMARK    1  A    between atoms: C_1  and  C_2
REMARK    2  A    between atoms: C_6  and  C_7
REMARK    3  A    between atoms: N_9  and  N_10
REMARK    4  A    between atoms: N_10  and  C_11
REMARK    5  A    between atoms: C_11  and  N_13
REMARK    6  A    between atoms: C_14  and  C_16
REMARK                            x       y       z     vdW  Elec       q    Type
REMARK                         _______ _______ _______ _____ _____    ______ ____
ROOT
ATOM      1  N   UNL     1      32.602 -10.983  28.078  0.00  0.00    +0.000 N 
ATOM      2  H   UNL     1      33.456 -10.490  28.337  0.00  0.00    +0.000 HD
ENDROOT
BRANCH   1   5
ATOM      3  C   UNL     1      32.584 -11.019  25.575  0.00  0.00    +0.000 C 
ATOM      4  O   UNL     1      32.536 -11.679  24.490  0.00  0.00    +0.000 OA
ATOM      5  N   UNL     1      32.547 -11.721  26.866  0.00  0.00    +0.000 N 
ATOM      6  H   UNL     1      32.482 -12.738  26.891  0.00  0.00    +0.000 HD
BRANCH   3  12
ATOM      7  C   UNL     1      27.606 -10.702  25.514  0.00  0.00    +0.000 C 
ATOM      8  C   UNL     1      27.703  -9.185  25.478  0.00  0.00    +0.000 A 
ATOM      9  C   UNL     1      28.993  -8.546  25.475  0.00  0.00    +0.000 A 
ATOM     10  C   UNL     1      30.192  -9.344  25.508  0.00  0.00    +0.000 A 
ATOM     11  C   UNL     1      31.483  -8.704  25.506  0.00  0.00    +0.000 A 
ATOM     12  C   UNL     1      32.682  -9.502  25.538  0.00  0.00    +0.000 A 
ATOM     13  C   UNL     1      26.504  -8.388  25.446  0.00  0.00    +0.000 A 
ENDBRANCH   3  12
ENDBRANCH   1   5
BRANCH   1  14
ATOM     14  C   UNL     1      31.427 -10.928  28.959  0.00  0.00    +0.000 C 
ATOM     15  S   UNL     1      29.989 -11.447  28.425  0.00  0.00    +0.000 S 
BRANCH  14  16
ATOM     16  N   UNL     1      31.557 -10.402  30.326  0.00  0.00    +0.000 N 
ATOM     17  C   UNL     1      31.617  -8.950  30.552  0.00  0.00    +0.000 C 
ATOM     18  O   UNL     1      31.730  -8.496  31.733  0.00  0.00    +0.000 OA
ATOM     19  H   UNL     1      31.605 -11.044  31.117  0.00  0.00    +0.000 HD
BRANCH  17  20
ATOM     20  C   UNL     1      31.546  -7.994  29.372  0.00  0.00    +0.000 A 
ATOM     21  C   UNL     1      30.267  -7.595  28.846  0.00  0.00    +0.000 A 
ATOM     22  C   UNL     1      29.055  -8.101  29.437  0.00  0.00    +0.000 A 
ATOM     23  C   UNL     1      27.776  -7.702  28.910  0.00  0.00    +0.000 A 
ATOM     24  C   UNL     1      26.563  -8.208  29.501  0.00  0.00    +0.000 A 
ATOM     25  C   UNL     1      32.758  -7.488  28.781  0.00  0.00    +0.000 A 
ENDBRANCH  17  20
ENDBRANCH  14  16
ENDBRANCH   1  14
TORSDOF 5
ENDMDL
MODEL 8
REMARK VINA RESULT:    -5.975     18.918     20.860
REMARK INTER + INTRA:          -9.433
REMARK INTER:                  -7.991
REMARK INTRA:                  -1.442
REMARK UNBOUND:                -1.711
REMARK  Name = 
REMARK  6 active torsions:
REMARK  status: ('A' for Active; 'I' for Inactive)
REMARK    1  A    between atoms: C_1  and  C_2
REMARK    2  A    between atoms: C_6  and  C_7
REMARK    3  A    between atoms: N_9  and  N_10
REMARK    4  A    between atoms: N_10  and  C_11
REMARK    5  A    between atoms: C_11  and  N_13
REMARK    6  A    between atoms: C_14  and  C_16
REMARK                            x       y       z     vdW  Elec       q    Type
REMARK                         _______ _______ _______ _____ _____    ______ ____
ROOT
ATOM      1  N   UNL     1      11.823   3.220  28.389  0.00  0.00    +0.000 N 
ATOM      2  H   UNL     1      11.687   2.217  28.511  0.00  0.00    +0.000 HD
ENDROOT
BRANCH   1   5
ATOM      3  C   UNL     1       9.750   3.340  26.990  0.00  0.00    +0.000 C 
ATOM      4  O   UNL     1       9.004   3.989  26.193  0.00  0.00    +0.000 OA
ATOM      5  N   UNL     1      10.990   3.946  27.496  0.00  0.00    +0.000 N 
ATOM      6  H   UNL     1      11.252   4.888  27.207  0.00  0.00    +0.000 HD
BRANCH   3  12
ATOM      7  C   UNL     1      11.765   1.499  22.814  0.00  0.00    +0.000 C 
ATOM      8  C   UNL     1      11.376   0.094  23.246  0.00  0.00    +0.000 A 
ATOM      9  C   UNL     1      10.688  -0.112  24.494  0.00  0.00    +0.000 A 
ATOM     10  C   UNL     1      10.368   1.014  25.334  0.00  0.00    +0.000 A 
ATOM     11  C   UNL     1       9.680   0.809  26.582  0.00  0.00    +0.000 A 
ATOM     12  C   UNL     1       9.360   1.935  27.422  0.00  0.00    +0.000 A 
ATOM     13  C   UNL     1      11.696  -1.032  22.407  0.00  0.00    +0.000 A 
ENDBRANCH   3  12
ENDBRANCH   1   5
BRANCH   1  14
ATOM     14  C   UNL     1      12.882   3.914  29.135  0.00  0.00    +0.000 C 
ATOM     15  S   UNL     1      12.927   5.533  29.160  0.00  0.00    +0.000 S 
BRANCH  14  16
ATOM     16  N   UNL     1      13.900   3.139  29.859  0.00  0.00    +0.000 N 
ATOM     17  C   UNL     1      15.094   2.653  29.153  0.00  0.00    +0.000 C 
ATOM     18  O   UNL     1      15.974   1.983  29.779  0.00  0.00    +0.000 OA
ATOM     19  H   UNL     1      13.778   2.939  30.852  0.00  0.00    +0.000 HD
BRANCH  17  20
ATOM     20  C   UNL     1      15.275   2.952  27.673  0.00  0.00    +0.000 A 
ATOM     21  C   UNL     1      14.851   1.991  26.688  0.00  0.00    +0.000 A 
ATOM     22  C   UNL     1      14.255   0.747  27.105  0.00  0.00    +0.000 A 
ATOM     23  C   UNL     1      13.831  -0.213  26.119  0.00  0.00    +0.000 A 
ATOM     24  C   UNL     1      13.235  -1.457  26.536  0.00  0.00    +0.000 A 
ATOM     25  C   UNL     1      15.871   4.195  27.256  0.00  0.00    +0.000 A 
ENDBRANCH  17  20
ENDBRANCH  14  16
ENDBRANCH   1  14
TORSDOF 5
ENDMDL
MODEL 9
REMARK VINA RESULT:    -5.948     19.244     21.597
REMARK INTER + INTRA:          -9.398
REMARK INTER:                  -8.662
REMARK INTRA:                  -0.736
REMARK UNBOUND:                -1.711
REMARK  Name = 
REMARK  6 active torsions:
REMARK  status: ('A' for Active; 'I' for Inactive)
REMARK    1  A    between atoms: C_1  and  C_2
REMARK    2  A    between atoms: C_6  and  C_7
REMARK    3  A    between atoms: N_9  and  N_10
REMARK    4  A    between atoms: N_10  and  C_11
REMARK    5  A    between atoms: C_11  and  N_13
REMARK    6  A    between atoms: C_14  and  C_16
REMARK                            x       y       z     vdW  Elec       q    Type
REMARK                         _______ _______ _______ _____ _____    ______ ____
ROOT
ATOM      1  N   UNL     1      11.090   3.439  29.008  0.00  0.00    +0.000 N 
ATOM      2  H   UNL     1      11.093   2.436  29.192  0.00  0.00    +0.000 HD
ENDROOT
BRANCH   1   5
ATOM      3  C   UNL     1       9.882   3.099  26.842  0.00  0.00    +0.000 C 
ATOM      4  O   UNL     1       9.545   3.534  25.697  0.00  0.00    +0.000 OA
ATOM      5  N   UNL     1      10.714   3.926  27.728  0.00  0.00    +0.000 N 
ATOM      6  H   UNL     1      11.022   4.849  27.423  0.00  0.00    +0.000 HD
BRANCH   3  12
ATOM      7  C   UNL     1      14.054   1.096  24.980  0.00  0.00    +0.000 C 
ATOM      8  C   UNL     1      13.597  -0.280  25.436  0.00  0.00    +0.000 A 
ATOM      9  C   UNL     1      12.337  -0.432  26.116  0.00  0.00    +0.000 A 
ATOM     10  C   UNL     1      11.511   0.721  26.366  0.00  0.00    +0.000 A 
ATOM     11  C   UNL     1      10.250   0.570  27.047  0.00  0.00    +0.000 A 
ATOM     12  C   UNL     1       9.424   1.723  27.297  0.00  0.00    +0.000 A 
ATOM     13  C   UNL     1      14.423  -1.432  25.186  0.00  0.00    +0.000 A 
ENDBRANCH   3  12
ENDBRANCH   1   5
BRANCH   1  14
ATOM     14  C   UNL     1      11.475   4.381  30.068  0.00  0.00    +0.000 C 
ATOM     15  S   UNL     1      10.893   5.893  30.060  0.00  0.00    +0.000 S 
BRANCH  14  16
ATOM     16  N   UNL     1      12.389   3.952  31.137  0.00  0.00    +0.000 N 
ATOM     17  C   UNL     1      13.822   3.782  30.854  0.00  0.00    +0.000 C 
ATOM     18  O   UNL     1      14.612   3.410  31.778  0.00  0.00    +0.000 OA
ATOM     19  H   UNL     1      12.029   3.772  32.074  0.00  0.00    +0.000 HD
BRANCH  17  20
ATOM     20  C   UNL     1      14.358   4.049  29.457  0.00  0.00    +0.000 A 
ATOM     21  C   UNL     1      14.647   5.398  29.044  0.00  0.00    +0.000 A 
ATOM     22  C   UNL     1      14.429   6.493  29.953  0.00  0.00    +0.000 A 
ATOM     23  C   UNL     1      14.718   7.842  29.539  0.00  0.00    +0.000 A 
ATOM     24  C   UNL     1      14.500   8.937  30.449  0.00  0.00    +0.000 A 
ATOM     25  C   UNL     1      14.576   2.955  28.547  0.00  0.00    +0.000 A 
ENDBRANCH  17  20
ENDBRANCH  14  16
ENDBRANCH   1  14
TORSDOF 5
ENDMDL
MODEL 10
REMARK VINA RESULT:    -5.867     19.035     21.223
REMARK INTER + INTRA:          -9.294
REMARK INTER:                  -8.092
REMARK INTRA:                  -1.202
REMARK UNBOUND:                -1.711
REMARK  Name = 
REMARK  6 active torsions:
REMARK  status: ('A' for Active; 'I' for Inactive)
REMARK    1  A    between atoms: C_1  and  C_2
REMARK    2  A    between atoms: C_6  and  C_7
REMARK    3  A    between atoms: N_9  and  N_10
REMARK    4  A    between atoms: N_10  and  C_11
REMARK    5  A    between atoms: C_11  and  N_13
REMARK    6  A    between atoms: C_14  and  C_16
REMARK                            x       y       z     vdW  Elec       q    Type
REMARK                         _______ _______ _______ _____ _____    ______ ____
ROOT
ATOM      1  N   UNL     1      11.498   3.463  28.455  0.00  0.00    +0.000 N 
ATOM      2  H   UNL     1      12.053   2.608  28.463  0.00  0.00    +0.000 HD
ENDROOT
BRANCH   1   5
ATOM      3  C   UNL     1       9.640   2.784  26.921  0.00  0.00    +0.000 C 
ATOM      4  O   UNL     1       8.888   3.045  25.930  0.00  0.00    +0.000 OA
ATOM      5  N   UNL     1      10.658   3.755  27.347  0.00  0.00    +0.000 N 
ATOM      6  H   UNL     1      10.763   4.638  26.848  0.00  0.00    +0.000 HD
BRANCH   3  12
ATOM      7  C   UNL     1      13.378   0.836  24.253  0.00  0.00    +0.000 C 
ATOM      8  C   UNL     1      13.224  -0.480  24.999  0.00  0.00    +0.000 A 
ATOM      9  C   UNL     1      12.217  -0.616  26.018  0.00  0.00    +0.000 A 
ATOM     10  C   UNL     1      11.355   0.494  26.332  0.00  0.00    +0.000 A 
ATOM     11  C   UNL     1      10.347   0.358  27.352  0.00  0.00    +0.000 A 
ATOM     12  C   UNL     1       9.485   1.469  27.666  0.00  0.00    +0.000 A 
ATOM     13  C   UNL     1      14.086  -1.590  24.685  0.00  0.00    +0.000 A 
ENDBRANCH   3  12
ENDBRANCH   1   5
BRANCH   1  14
ATOM     14  C   UNL     1      11.567   4.394  29.590  0.00  0.00    +0.000 C 
ATOM     15  S   UNL     1      10.676   5.747  29.583  0.00  0.00    +0.000 S 
BRANCH  14  16
ATOM     16  N   UNL     1      12.443   4.097  30.732  0.00  0.00    +0.000 N 
ATOM     17  C   UNL     1      13.852   4.520  30.706  0.00  0.00    +0.000 C 
ATOM     18  O   UNL     1      14.610   4.263  31.693  0.00  0.00    +0.000 OA
ATOM     19  H   UNL     1      12.075   3.599  31.542  0.00  0.00    +0.000 HD
BRANCH  17  20
ATOM     20  C   UNL     1      14.400   5.262  29.498  0.00  0.00    +0.000 A 
ATOM     21  C   UNL     1      14.936   4.525  28.383  0.00  0.00    +0.000 A 
ATOM     22  C   UNL     1      14.952   3.085  28.412  0.00  0.00    +0.000 A 
ATOM     23  C   UNL     1      15.488   2.349  27.297  0.00  0.00    +0.000 A 
ATOM     24  C   UNL     1      15.504   0.909  27.326  0.00  0.00    +0.000 A 
ATOM     25  C   UNL     1      14.384   6.702  29.469  0.00  0.00    +0.000 A 
ENDBRANCH  17  20
ENDBRANCH  14  16
ENDBRANCH   1  14
TORSDOF 5
ENDMDL
