REMARK  Name = 
REMARK  5 active torsions:
REMARK  status: ('A' for Active; 'I' for Inactive)
REMARK    1  A    between atoms: C_1  and  O_2
REMARK    2  A    between atoms: O_2  and  C_3
REMARK    3  A    between atoms: C_6  and  C_7
REMARK    4  A    between atoms: C_10  and  C_11
REMARK    5  A    between atoms: C_14  and  N_15
REMARK                            x       y       z     vdW  Elec       q    Type
REMARK                         _______ _______ _______ _____ _____    ______ ____
ROOT
ATOM      1  C   UNL     1      -1.807  -0.540  -6.037  0.00  0.00    +0.000 C 
ATOM      2  C   UNL     1      -2.260  -0.389  -7.311  0.00  0.00    +0.000 C 
ATOM      3  S   UNL     1      -1.823   1.090  -8.258  0.00  0.00    +0.000 S 
ATOM      4  C   UNL     1      -2.572   0.997  -9.903  0.00  0.00    +0.000 C 
ATOM      5  N   UNL     1      -2.386   1.971 -10.767  0.00  0.00    +0.000 NA
ATOM      6  C   UNL     1      -3.134  -1.463  -7.939  0.00  0.00    +0.000 C 
ATOM      7  O   UNL     1      -3.441  -2.502  -7.274  0.00  0.00    +0.000 OA
ENDROOT
BRANCH   1  11
ATOM      8  C   UNL     1       0.855   1.230  -2.117  0.00  0.00    +0.000 A 
ATOM      9  C   UNL     1       0.375   1.390  -3.466  0.00  0.00    +0.000 A 
ATOM     10  C   UNL     1      -0.453   0.373  -4.061  0.00  0.00    +0.000 A 
ATOM     11  C   UNL     1      -0.933   0.533  -5.409  0.00  0.00    +0.000 A 
ATOM     12  C   UNL     1      -0.585   1.710  -6.162  0.00  0.00    +0.000 A 
ATOM     13  C   UNL     1       1.683   2.247  -1.522  0.00  0.00    +0.000 A 
BRANCH   8  15
ATOM     14  C   UNL     1       0.986  -0.088  -0.045  0.00  0.00    +0.000 C 
ATOM     15  O   UNL     1       0.512   0.070  -1.375  0.00  0.00    +0.000 OA
ENDBRANCH   8  15
ENDBRANCH   1  11
BRANCH   4  16
ATOM     16  C   UNL     1      -3.416  -0.207 -10.286  0.00  0.00    +0.000 A 
ATOM     17  C   UNL     1      -3.621  -1.274  -9.340  0.00  0.00    +0.000 A 
ATOM     18  C   UNL     1      -3.024  -1.200  -8.031  0.00  0.00    +0.000 A 
ATOM     19  C   UNL     1      -3.229  -2.267  -7.086  0.00  0.00    +0.000 A 
ATOM     20  C   UNL     1      -4.029  -3.408  -7.449  0.00  0.00    +0.000 A 
ATOM     21  C   UNL     1      -4.012  -0.282 -11.595  0.00  0.00    +0.000 A 
BRANCH  19  22
ATOM     22  N   UNL     1      -2.620  -2.191  -5.750  0.00  0.00    +0.000 N 
ATOM     23  H   UNL     1      -2.765  -2.947  -5.080  0.00  0.00    +0.000 HD
ATOM     24  H   UNL     1      -2.053  -1.383  -5.492  0.00  0.00    +0.000 HD
ENDBRANCH  19  22
ENDBRANCH   4  16
TORSDOF 4
