REMARK  Name = 
REMARK  9 active torsions:
REMARK  status: ('A' for Active; 'I' for Inactive)
REMARK    1  A    between atoms: C_1  and  O_2
REMARK    2  A    between atoms: O_2  and  C_3
REMARK    3  A    between atoms: C_6  and  C_7
REMARK    4  A    between atoms: N_9  and  C_10
REMARK    5  A    between atoms: C_10  and  N_12
REMARK    6  A    between atoms: N_12  and  N_13
REMARK    7  A    between atoms: C_14  and  C_16
REMARK    8  A    between atoms: C_17  and  C_18
REMARK    9  A    between atoms: C_26  and  C_27
REMARK                            x       y       z     vdW  Elec       q    Type
REMARK                         _______ _______ _______ _____ _____    ______ ____
ROOT
ATOM      1  N   UNL     1      -0.725  -3.116   1.136  0.00  0.00    +0.000 N 
ATOM      2  H   UNL     1      -0.385  -2.154   1.127  0.00  0.00    +0.000 HD
ENDROOT
BRANCH   1   3
ATOM      3  N   UNL     1      -0.382  -4.000   0.079  0.00  0.00    +0.000 N 
ATOM      4  C   UNL     1       0.464  -3.530  -1.028  0.00  0.00    +0.000 C 
ATOM      5  O   UNL     1       0.771  -4.321  -1.974  0.00  0.00    +0.000 OA
ATOM      6  H   UNL     1      -0.722  -4.962   0.088  0.00  0.00    +0.000 HD
BRANCH   4   7
ATOM      7  C   UNL     1       0.970  -2.097  -1.041  0.00  0.00    +0.000 A 
ATOM      8  C   UNL     1       1.798  -1.636  -2.125  0.00  0.00    +0.000 A 
ATOM      9  N   UNL     1       2.262  -0.323  -2.138  0.00  0.00    +0.000 NA
ATOM     10  O   UNL     1       3.009   0.093  -3.115  0.00  0.00    +0.000 OA
ATOM     11  C   UNL     1       0.622  -1.200   0.031  0.00  0.00    +0.000 A 
ATOM     12  C   UNL     1      -0.252  -1.686   1.175  0.00  0.00    +0.000 C 
BRANCH   8  13
ATOM     13  C   UNL     1       2.165  -2.582  -3.257  0.00  0.00    +0.000 A 
ATOM     14  C   UNL     1       1.685  -3.940  -3.244  0.00  0.00    +0.000 A 
ATOM     15  C   UNL     1       0.857  -4.401  -2.160  0.00  0.00    +0.000 A 
ATOM     16  C   UNL     1       0.377  -5.759  -2.147  0.00  0.00    +0.000 A 
ATOM     17  C   UNL     1      -0.451  -6.220  -1.063  0.00  0.00    +0.000 A 
ATOM     18  C   UNL     1       2.993  -2.121  -4.341  0.00  0.00    +0.000 A 
ENDBRANCH   8  13
ENDBRANCH   4   7
ENDBRANCH   1   3
BRANCH   1  19
ATOM     19  C   UNL     1      -1.570  -3.587   2.243  0.00  0.00    +0.000 C 
ATOM     20  S   UNL     1      -1.961  -2.578   3.449  0.00  0.00    +0.000 S 
BRANCH  19  23
ATOM     21  C   UNL     1      -1.705  -5.888   1.162  0.00  0.00    +0.000 C 
ATOM     22  O   UNL     1      -2.128  -7.086   1.173  0.00  0.00    +0.000 OA
ATOM     23  N   UNL     1      -2.060  -4.972   2.256  0.00  0.00    +0.000 N 
ATOM     24  H   UNL     1      -2.646  -5.299   3.024  0.00  0.00    +0.000 HD
BRANCH  21  28
ATOM     25  C   UNL     1       0.957  -2.225  -1.092  0.00  0.00    +0.000 A 
ATOM     26  C   UNL     1       0.477  -3.582  -1.080  0.00  0.00    +0.000 A 
ATOM     27  C   UNL     1      -0.351  -4.043   0.005  0.00  0.00    +0.000 A 
ATOM     28  C   UNL     1      -0.831  -5.401   0.017  0.00  0.00    +0.000 A 
ATOM     29  C   UNL     1      -0.483  -6.298  -1.055  0.00  0.00    +0.000 A 
ATOM     30  C   UNL     1       1.785  -1.764  -2.177  0.00  0.00    +0.000 A 
BRANCH  25  32
ATOM     31  C   UNL     1       1.088  -0.002  -0.048  0.00  0.00    +0.000 C 
ATOM     32  O   UNL     1       0.614  -1.340  -0.036  0.00  0.00    +0.000 OA
ENDBRANCH  25  32
ENDBRANCH  21  28
ENDBRANCH  19  23
ENDBRANCH   1  19
TORSDOF 7
