MODEL 1
REMARK VINA RESULT:    -6.855      0.000      0.000
REMARK INTER + INTRA:         -10.174
REMARK INTER:                  -8.859
REMARK INTRA:                  -1.315
REMARK UNBOUND:                -1.315
REMARK  Name = 
REMARK  6 active torsions:
REMARK  status: ('A' for Active; 'I' for Inactive)
REMARK    1  A    between atoms: C_1  and  C_2
REMARK    2  A    between atoms: C_7  and  C_8
REMARK    3  A    between atoms: N_10  and  N_11
REMARK    4  A    between atoms: N_11  and  C_12
REMARK    5  A    between atoms: C_12  and  N_14
REMARK    6  A    between atoms: C_15  and  C_17
REMARK                            x       y       z     vdW  Elec       q    Type
REMARK                         _______ _______ _______ _____ _____    ______ ____
ROOT
ATOM      1  N   UNL     1      13.730   5.486  28.097  0.00  0.00    +0.000 N 
ATOM      2  H   UNL     1      13.236   4.847  27.474  0.00  0.00    +0.000 HD
ENDROOT
BRANCH   1   5
ATOM      3  C   UNL     1      15.861   4.263  27.622  0.00  0.00    +0.000 C 
ATOM      4  O   UNL     1      17.114   4.139  27.797  0.00  0.00    +0.000 OA
ATOM      5  N   UNL     1      15.128   5.348  28.292  0.00  0.00    +0.000 N 
ATOM      6  H   UNL     1      15.626   6.001  28.896  0.00  0.00    +0.000 HD
BRANCH   3  13
ATOM      7  C   UNL     1      15.212   1.545  28.597  0.00  0.00    +0.000 C 
ATOM      8  C   UNL     1      14.804   1.967  27.195  0.00  0.00    +0.000 A 
ATOM      9  C   UNL     1      14.102   1.044  26.342  0.00  0.00    +0.000 A 
ATOM     10  C   UNL     1      13.786  -0.279  26.816  0.00  0.00    +0.000 A 
ATOM     11  C   UNL     1      13.084  -1.202  25.963  0.00  0.00    +0.000 A 
ATOM     12  C   UNL     1      12.768  -2.524  26.438  0.00  0.00    +0.000 A 
ATOM     13  C   UNL     1      15.120   3.290  26.721  0.00  0.00    +0.000 A 
ENDBRANCH   3  13
ENDBRANCH   1   5
BRANCH   1  14
ATOM     14  C   UNL     1      12.991   6.549  28.792  0.00  0.00    +0.000 C 
ATOM     15  S   UNL     1      13.686   7.354  30.014  0.00  0.00    +0.000 S 
BRANCH  14  16
ATOM     16  N   UNL     1      11.619   6.883  28.379  0.00  0.00    +0.000 N 
ATOM     17  C   UNL     1      10.496   6.043  28.817  0.00  0.00    +0.000 C 
ATOM     18  O   UNL     1       9.310   6.330  28.459  0.00  0.00    +0.000 OA
ATOM     19  H   UNL     1      11.449   7.696  27.788  0.00  0.00    +0.000 HD
BRANCH  17  20
ATOM     20  C   UNL     1      10.750   4.830  29.698  0.00  0.00    +0.000 A 
ATOM     21  C   UNL     1      10.850   3.520  29.109  0.00  0.00    +0.000 A 
ATOM     22  C   UNL     1      10.708   3.358  27.686  0.00  0.00    +0.000 A 
ATOM     23  C   UNL     1      10.809   2.047  27.097  0.00  0.00    +0.000 A 
ATOM     24  C   UNL     1      10.668   1.884  25.673  0.00  0.00    +0.000 A 
ATOM     25  C   UNL     1      10.892   4.993  31.122  0.00  0.00    +0.000 A 
ENDBRANCH  17  20
ENDBRANCH  14  16
ENDBRANCH   1  14
TORSDOF 5
ENDMDL
MODEL 2
REMARK VINA RESULT:    -6.511     27.160     29.743
REMARK INTER + INTRA:          -9.729
REMARK INTER:                  -9.028
REMARK INTRA:                  -0.702
REMARK UNBOUND:                -1.315
REMARK  Name = 
REMARK  6 active torsions:
REMARK  status: ('A' for Active; 'I' for Inactive)
REMARK    1  A    between atoms: C_1  and  C_2
REMARK    2  A    between atoms: C_7  and  C_8
REMARK    3  A    between atoms: N_10  and  N_11
REMARK    4  A    between atoms: N_11  and  C_12
REMARK    5  A    between atoms: C_12  and  N_14
REMARK    6  A    between atoms: C_15  and  C_17
REMARK                            x       y       z     vdW  Elec       q    Type
REMARK                         _______ _______ _______ _____ _____    ______ ____
ROOT
ATOM      1  N   UNL     1      37.265  10.888  41.753  0.00  0.00    +0.000 N 
ATOM      2  H   UNL     1      37.945  10.166  41.512  0.00  0.00    +0.000 HD
ENDROOT
BRANCH   1   5
ATOM      3  C   UNL     1      35.103   9.670  41.425  0.00  0.00    +0.000 C 
ATOM      4  O   UNL     1      33.934   9.631  40.931  0.00  0.00    +0.000 OA
ATOM      5  N   UNL     1      35.959  10.845  41.201  0.00  0.00    +0.000 N 
ATOM      6  H   UNL     1      35.612  11.629  40.649  0.00  0.00    +0.000 HD
BRANCH   3  13
ATOM      7  C   UNL     1      35.449   7.013  40.168  0.00  0.00    +0.000 C 
ATOM      8  C   UNL     1      35.788   7.208  41.636  0.00  0.00    +0.000 A 
ATOM      9  C   UNL     1      36.277   6.100  42.416  0.00  0.00    +0.000 A 
ATOM     10  C   UNL     1      36.445   4.807  41.804  0.00  0.00    +0.000 A 
ATOM     11  C   UNL     1      36.934   3.700  42.583  0.00  0.00    +0.000 A 
ATOM     12  C   UNL     1      37.101   2.407  41.971  0.00  0.00    +0.000 A 
ATOM     13  C   UNL     1      35.620   8.501  42.248  0.00  0.00    +0.000 A 
ENDBRANCH   3  13
ENDBRANCH   1   5
BRANCH   1  14
ATOM     14  C   UNL     1      37.640  11.971  42.673  0.00  0.00    +0.000 C 
ATOM     15  S   UNL     1      36.504  12.963  43.264  0.00  0.00    +0.000 S 
BRANCH  14  16
ATOM     16  N   UNL     1      39.048  12.155  43.056  0.00  0.00    +0.000 N 
ATOM     17  C   UNL     1      39.644  11.304  44.096  0.00  0.00    +0.000 C 
ATOM     18  O   UNL     1      40.860  11.463  44.428  0.00  0.00    +0.000 OA
ATOM     19  H   UNL     1      39.610  12.874  42.601  0.00  0.00    +0.000 HD
BRANCH  17  20
ATOM     20  C   UNL     1      38.805  10.233  44.774  0.00  0.00    +0.000 A 
ATOM     21  C   UNL     1      38.043  10.554  45.954  0.00  0.00    +0.000 A 
ATOM     22  C   UNL     1      38.076  11.890  46.491  0.00  0.00    +0.000 A 
ATOM     23  C   UNL     1      37.313  12.211  47.670  0.00  0.00    +0.000 A 
ATOM     24  C   UNL     1      37.346  13.546  48.207  0.00  0.00    +0.000 A 
ATOM     25  C   UNL     1      38.772   8.897  44.238  0.00  0.00    +0.000 A 
ENDBRANCH  17  20
ENDBRANCH  14  16
ENDBRANCH   1  14
TORSDOF 5
ENDMDL
MODEL 3
REMARK VINA RESULT:    -6.484     27.421     29.983
REMARK INTER + INTRA:          -9.695
REMARK INTER:                  -9.141
REMARK INTRA:                  -0.553
REMARK UNBOUND:                -1.315
REMARK  Name = 
REMARK  6 active torsions:
REMARK  status: ('A' for Active; 'I' for Inactive)
REMARK    1  A    between atoms: C_1  and  C_2
REMARK    2  A    between atoms: C_7  and  C_8
REMARK    3  A    between atoms: N_10  and  N_11
REMARK    4  A    between atoms: N_11  and  C_12
REMARK    5  A    between atoms: C_12  and  N_14
REMARK    6  A    between atoms: C_15  and  C_17
REMARK                            x       y       z     vdW  Elec       q    Type
REMARK                         _______ _______ _______ _____ _____    ______ ____
ROOT
ATOM      1  N   UNL     1      37.313   9.753  43.090  0.00  0.00    +0.000 N 
ATOM      2  H   UNL     1      37.986   8.995  42.970  0.00  0.00    +0.000 HD
ENDROOT
BRANCH   1   5
ATOM      3  C   UNL     1      35.299   8.889  41.881  0.00  0.00    +0.000 C 
ATOM      4  O   UNL     1      34.381   9.065  41.020  0.00  0.00    +0.000 OA
ATOM      5  N   UNL     1      36.288   9.949  42.129  0.00  0.00    +0.000 N 
ATOM      6  H   UNL     1      36.236  10.825  41.610  0.00  0.00    +0.000 HD
BRANCH   3  13
ATOM      7  C   UNL     1      36.144   6.406  40.509  0.00  0.00    +0.000 C 
ATOM      8  C   UNL     1      35.787   6.375  41.986  0.00  0.00    +0.000 A 
ATOM      9  C   UNL     1      35.861   5.136  42.718  0.00  0.00    +0.000 A 
ATOM     10  C   UNL     1      36.271   3.928  42.051  0.00  0.00    +0.000 A 
ATOM     11  C   UNL     1      36.345   2.690  42.783  0.00  0.00    +0.000 A 
ATOM     12  C   UNL     1      36.756   1.482  42.115  0.00  0.00    +0.000 A 
ATOM     13  C   UNL     1      35.377   7.583  42.653  0.00  0.00    +0.000 A 
ENDBRANCH   3  13
ENDBRANCH   1   5
BRANCH   1  14
ATOM     14  C   UNL     1      37.406  10.639  44.258  0.00  0.00    +0.000 C 
ATOM     15  S   UNL     1      38.134  10.125  45.610  0.00  0.00    +0.000 S 
BRANCH  14  16
ATOM     16  N   UNL     1      36.837  11.995  44.200  0.00  0.00    +0.000 N 
ATOM     17  C   UNL     1      37.609  13.090  43.597  0.00  0.00    +0.000 C 
ATOM     18  O   UNL     1      37.118  14.261  43.546  0.00  0.00    +0.000 OA
ATOM     19  H   UNL     1      35.907  12.173  44.578  0.00  0.00    +0.000 HD
BRANCH  17  20
ATOM     20  C   UNL     1      38.996  12.823  43.033  0.00  0.00    +0.000 A 
ATOM     21  C   UNL     1      40.152  12.919  43.888  0.00  0.00    +0.000 A 
ATOM     22  C   UNL     1      39.994  13.269  45.276  0.00  0.00    +0.000 A 
ATOM     23  C   UNL     1      41.150  13.364  46.130  0.00  0.00    +0.000 A 
ATOM     24  C   UNL     1      40.992  13.714  47.518  0.00  0.00    +0.000 A 
ATOM     25  C   UNL     1      39.154  12.473  41.646  0.00  0.00    +0.000 A 
ENDBRANCH  17  20
ENDBRANCH  14  16
ENDBRANCH   1  14
TORSDOF 5
ENDMDL
MODEL 4
REMARK VINA RESULT:    -6.419     27.155     29.667
REMARK INTER + INTRA:          -9.610
REMARK INTER:                  -9.136
REMARK INTRA:                  -0.474
REMARK UNBOUND:                -1.315
REMARK  Name = 
REMARK  6 active torsions:
REMARK  status: ('A' for Active; 'I' for Inactive)
REMARK    1  A    between atoms: C_1  and  C_2
REMARK    2  A    between atoms: C_7  and  C_8
REMARK    3  A    between atoms: N_10  and  N_11
REMARK    4  A    between atoms: N_11  and  C_12
REMARK    5  A    between atoms: C_12  and  N_14
REMARK    6  A    between atoms: C_15  and  C_17
REMARK                            x       y       z     vdW  Elec       q    Type
REMARK                         _______ _______ _______ _____ _____    ______ ____
ROOT
ATOM      1  N   UNL     1      37.265  10.648  42.140  0.00  0.00    +0.000 N 
ATOM      2  H   UNL     1      37.737  10.195  41.357  0.00  0.00    +0.000 HD
ENDROOT
BRANCH   1   5
ATOM      3  C   UNL     1      34.948  10.209  41.302  0.00  0.00    +0.000 C 
ATOM      4  O   UNL     1      33.738  10.579  41.186  0.00  0.00    +0.000 OA
ATOM      5  N   UNL     1      35.914  11.061  42.012  0.00  0.00    +0.000 N 
ATOM      6  H   UNL     1      35.612  11.949  42.412  0.00  0.00    +0.000 HD
BRANCH   3  13
ATOM      7  C   UNL     1      35.033   7.778  42.989  0.00  0.00    +0.000 C 
ATOM      8  C   UNL     1      35.440   7.703  41.526  0.00  0.00    +0.000 A 
ATOM      9  C   UNL     1      35.866   6.449  40.962  0.00  0.00    +0.000 A 
ATOM     10  C   UNL     1      35.908   5.266  41.782  0.00  0.00    +0.000 A 
ATOM     11  C   UNL     1      36.334   4.012  41.218  0.00  0.00    +0.000 A 
ATOM     12  C   UNL     1      36.375   2.829  42.039  0.00  0.00    +0.000 A 
ATOM     13  C   UNL     1      35.398   8.886  40.706  0.00  0.00    +0.000 A 
ENDBRANCH   3  13
ENDBRANCH   1   5
BRANCH   1  14
ATOM     14  C   UNL     1      37.986  10.871  43.401  0.00  0.00    +0.000 C 
ATOM     15  S   UNL     1      37.693   9.924  44.682  0.00  0.00    +0.000 S 
BRANCH  14  16
ATOM     16  N   UNL     1      38.975  11.956  43.501  0.00  0.00    +0.000 N 
ATOM     17  C   UNL     1      38.598  13.238  44.112  0.00  0.00    +0.000 C 
ATOM     18  O   UNL     1      39.452  14.176  44.198  0.00  0.00    +0.000 OA
ATOM     19  H   UNL     1      39.920  11.818  43.146  0.00  0.00    +0.000 HD
BRANCH  17  20
ATOM     20  C   UNL     1      37.188  13.444  44.642  0.00  0.00    +0.000 A 
ATOM     21  C   UNL     1      36.904  13.230  46.038  0.00  0.00    +0.000 A 
ATOM     22  C   UNL     1      37.956  12.821  46.931  0.00  0.00    +0.000 A 
ATOM     23  C   UNL     1      37.673  12.608  48.328  0.00  0.00    +0.000 A 
ATOM     24  C   UNL     1      38.724  12.199  49.222  0.00  0.00    +0.000 A 
ATOM     25  C   UNL     1      36.136  13.853  43.748  0.00  0.00    +0.000 A 
ENDBRANCH  17  20
ENDBRANCH  14  16
ENDBRANCH   1  14
TORSDOF 5
ENDMDL
MODEL 5
REMARK VINA RESULT:    -6.412      2.533      4.347
REMARK INTER + INTRA:          -9.601
REMARK INTER:                  -8.867
REMARK INTRA:                  -0.734
REMARK UNBOUND:                -1.315
REMARK  Name = 
REMARK  6 active torsions:
REMARK  status: ('A' for Active; 'I' for Inactive)
REMARK    1  A    between atoms: C_1  and  C_2
REMARK    2  A    between atoms: C_7  and  C_8
REMARK    3  A    between atoms: N_10  and  N_11
REMARK    4  A    between atoms: N_11  and  C_12
REMARK    5  A    between atoms: C_12  and  N_14
REMARK    6  A    between atoms: C_15  and  C_17
REMARK                            x       y       z     vdW  Elec       q    Type
REMARK                         _______ _______ _______ _____ _____    ______ ____
ROOT
ATOM      1  N   UNL     1      12.239   6.449  28.333  0.00  0.00    +0.000 N 
ATOM      2  H   UNL     1      12.836   5.941  27.681  0.00  0.00    +0.000 HD
ENDROOT
BRANCH   1   5
ATOM      3  C   UNL     1      10.971   4.394  28.990  0.00  0.00    +0.000 C 
ATOM      4  O   UNL     1       9.904   3.858  29.424  0.00  0.00    +0.000 OA
ATOM      5  N   UNL     1      11.046   5.852  28.818  0.00  0.00    +0.000 N 
ATOM      6  H   UNL     1      10.240   6.433  29.046  0.00  0.00    +0.000 HD
BRANCH   3  13
ATOM      7  C   UNL     1      10.737   2.287  26.924  0.00  0.00    +0.000 C 
ATOM      8  C   UNL     1      12.058   2.502  27.644  0.00  0.00    +0.000 A 
ATOM      9  C   UNL     1      13.195   1.679  27.321  0.00  0.00    +0.000 A 
ATOM     10  C   UNL     1      13.081   0.654  26.316  0.00  0.00    +0.000 A 
ATOM     11  C   UNL     1      14.218  -0.167  25.992  0.00  0.00    +0.000 A 
ATOM     12  C   UNL     1      14.103  -1.192  24.987  0.00  0.00    +0.000 A 
ATOM     13  C   UNL     1      12.172   3.526  28.650  0.00  0.00    +0.000 A 
ENDBRANCH   3  13
ENDBRANCH   1   5
BRANCH   1  14
ATOM     14  C   UNL     1      12.615   7.801  28.770  0.00  0.00    +0.000 C 
ATOM     15  S   UNL     1      11.546   9.013  28.667  0.00  0.00    +0.000 S 
BRANCH  14  16
ATOM     16  N   UNL     1      13.963   8.053  29.302  0.00  0.00    +0.000 N 
ATOM     17  C   UNL     1      14.189   8.068  30.754  0.00  0.00    +0.000 C 
ATOM     18  O   UNL     1      15.354   8.286  31.213  0.00  0.00    +0.000 OA
ATOM     19  H   UNL     1      14.740   8.218  28.663  0.00  0.00    +0.000 HD
BRANCH  17  20
ATOM     20  C   UNL     1      13.030   7.822  31.707  0.00  0.00    +0.000 A 
ATOM     21  C   UNL     1      12.739   6.485  32.157  0.00  0.00    +0.000 A 
ATOM     22  C   UNL     1      13.545   5.382  31.705  0.00  0.00    +0.000 A 
ATOM     23  C   UNL     1      13.254   4.045  32.156  0.00  0.00    +0.000 A 
ATOM     24  C   UNL     1      14.060   2.941  31.704  0.00  0.00    +0.000 A 
ATOM     25  C   UNL     1      12.224   8.926  32.159  0.00  0.00    +0.000 A 
ENDBRANCH  17  20
ENDBRANCH  14  16
ENDBRANCH   1  14
TORSDOF 5
ENDMDL
MODEL 6
REMARK VINA RESULT:    -6.408     27.197     29.795
REMARK INTER + INTRA:          -9.597
REMARK INTER:                  -9.691
REMARK INTRA:                   0.095
REMARK UNBOUND:                -1.315
REMARK  Name = 
REMARK  6 active torsions:
REMARK  status: ('A' for Active; 'I' for Inactive)
REMARK    1  A    between atoms: C_1  and  C_2
REMARK    2  A    between atoms: C_7  and  C_8
REMARK    3  A    between atoms: N_10  and  N_11
REMARK    4  A    between atoms: N_11  and  C_12
REMARK    5  A    between atoms: C_12  and  N_14
REMARK    6  A    between atoms: C_15  and  C_17
REMARK                            x       y       z     vdW  Elec       q    Type
REMARK                         _______ _______ _______ _____ _____    ______ ____
ROOT
ATOM      1  N   UNL     1      36.643  10.052  42.547  0.00  0.00    +0.000 N 
ATOM      2  H   UNL     1      36.810   9.281  43.194  0.00  0.00    +0.000 HD
ENDROOT
BRANCH   1   5
ATOM      3  C   UNL     1      35.347   8.502  41.070  0.00  0.00    +0.000 C 
ATOM      4  O   UNL     1      34.647   8.315  40.026  0.00  0.00    +0.000 OA
ATOM      5  N   UNL     1      35.861   9.844  41.381  0.00  0.00    +0.000 N 
ATOM      6  H   UNL     1      35.654  10.625  40.759  0.00  0.00    +0.000 HD
BRANCH   3  13
ATOM      7  C   UNL     1      35.627   5.768  39.969  0.00  0.00    +0.000 C 
ATOM      8  C   UNL     1      35.791   6.007  41.461  0.00  0.00    +0.000 A 
ATOM      9  C   UNL     1      36.083   4.903  42.339  0.00  0.00    +0.000 A 
ATOM     10  C   UNL     1      36.219   3.573  41.803  0.00  0.00    +0.000 A 
ATOM     11  C   UNL     1      36.511   2.470  42.681  0.00  0.00    +0.000 A 
ATOM     12  C   UNL     1      36.647   1.140  42.144  0.00  0.00    +0.000 A 
ATOM     13  C   UNL     1      35.655   7.337  41.996  0.00  0.00    +0.000 A 
ENDBRANCH   3  13
ENDBRANCH   1   5
BRANCH   1  14
ATOM     14  C   UNL     1      37.213  11.378  42.823  0.00  0.00    +0.000 C 
ATOM     15  S   UNL     1      37.719  12.314  41.603  0.00  0.00    +0.000 S 
BRANCH  14  16
ATOM     16  N   UNL     1      37.325  11.855  44.211  0.00  0.00    +0.000 N 
ATOM     17  C   UNL     1      38.435  11.397  45.057  0.00  0.00    +0.000 C 
ATOM     18  O   UNL     1      38.531  11.808  46.256  0.00  0.00    +0.000 OA
ATOM     19  H   UNL     1      36.631  12.503  44.584  0.00  0.00    +0.000 HD
BRANCH  17  20
ATOM     20  C   UNL     1      39.468  10.431  44.500  0.00  0.00    +0.000 A 
ATOM     21  C   UNL     1      40.651  10.936  43.853  0.00  0.00    +0.000 A 
ATOM     22  C   UNL     1      40.855  12.356  43.733  0.00  0.00    +0.000 A 
ATOM     23  C   UNL     1      42.040  12.862  43.086  0.00  0.00    +0.000 A 
ATOM     24  C   UNL     1      42.244  14.282  42.966  0.00  0.00    +0.000 A 
ATOM     25  C   UNL     1      39.264   9.011  44.620  0.00  0.00    +0.000 A 
ENDBRANCH  17  20
ENDBRANCH  14  16
ENDBRANCH   1  14
TORSDOF 5
ENDMDL
MODEL 7
REMARK VINA RESULT:    -6.393      2.362      4.078
REMARK INTER + INTRA:          -9.576
REMARK INTER:                  -8.883
REMARK INTRA:                  -0.693
REMARK UNBOUND:                -1.315
REMARK  Name = 
REMARK  6 active torsions:
REMARK  status: ('A' for Active; 'I' for Inactive)
REMARK    1  A    between atoms: C_1  and  C_2
REMARK    2  A    between atoms: C_7  and  C_8
REMARK    3  A    between atoms: N_10  and  N_11
REMARK    4  A    between atoms: N_11  and  C_12
REMARK    5  A    between atoms: C_12  and  N_14
REMARK    6  A    between atoms: C_15  and  C_17
REMARK                            x       y       z     vdW  Elec       q    Type
REMARK                         _______ _______ _______ _____ _____    ______ ____
ROOT
ATOM      1  N   UNL     1      13.733   3.354  29.249  0.00  0.00    +0.000 N 
ATOM      2  H   UNL     1      13.229   2.865  28.509  0.00  0.00    +0.000 HD
ENDROOT
BRANCH   1   5
ATOM      3  C   UNL     1      16.040   2.731  28.503  0.00  0.00    +0.000 C 
ATOM      4  O   UNL     1      17.259   3.047  28.340  0.00  0.00    +0.000 OA
ATOM      5  N   UNL     1      15.095   3.707  29.066  0.00  0.00    +0.000 N 
ATOM      6  H   UNL     1      15.420   4.638  29.325  0.00  0.00    +0.000 HD
BRANCH   3  13
ATOM      7  C   UNL     1      14.759   2.288  25.871  0.00  0.00    +0.000 C 
ATOM      8  C   UNL     1      14.933   1.127  26.837  0.00  0.00    +0.000 A 
ATOM      9  C   UNL     1      14.475  -0.188  26.471  0.00  0.00    +0.000 A 
ATOM     10  C   UNL     1      13.852  -0.404  25.190  0.00  0.00    +0.000 A 
ATOM     11  C   UNL     1      13.394  -1.719  24.824  0.00  0.00    +0.000 A 
ATOM     12  C   UNL     1      12.770  -1.933  23.544  0.00  0.00    +0.000 A 
ATOM     13  C   UNL     1      15.556   1.343  28.117  0.00  0.00    +0.000 A 
ENDBRANCH   3  13
ENDBRANCH   1   5
BRANCH   1  14
ATOM     14  C   UNL     1      13.047   3.693  30.503  0.00  0.00    +0.000 C 
ATOM     15  S   UNL     1      13.850   3.635  31.908  0.00  0.00    +0.000 S 
BRANCH  14  16
ATOM     16  N   UNL     1      11.629   4.084  30.483  0.00  0.00    +0.000 N 
ATOM     17  C   UNL     1      11.253   5.466  30.152  0.00  0.00    +0.000 C 
ATOM     18  O   UNL     1      10.028   5.805  30.135  0.00  0.00    +0.000 OA
ATOM     19  H   UNL     1      10.907   3.397  30.698  0.00  0.00    +0.000 HD
BRANCH  17  20
ATOM     20  C   UNL     1      12.330   6.491  29.831  0.00  0.00    +0.000 A 
ATOM     21  C   UNL     1      12.884   7.307  30.881  0.00  0.00    +0.000 A 
ATOM     22  C   UNL     1      12.419   7.152  32.234  0.00  0.00    +0.000 A 
ATOM     23  C   UNL     1      12.974   7.967  33.284  0.00  0.00    +0.000 A 
ATOM     24  C   UNL     1      12.509   7.813  34.638  0.00  0.00    +0.000 A 
ATOM     25  C   UNL     1      12.795   6.645  28.477  0.00  0.00    +0.000 A 
ENDBRANCH  17  20
ENDBRANCH  14  16
ENDBRANCH   1  14
TORSDOF 5
ENDMDL
MODEL 8
REMARK VINA RESULT:    -6.252     29.377     32.042
REMARK INTER + INTRA:          -9.394
REMARK INTER:                  -8.298
REMARK INTRA:                  -1.096
REMARK UNBOUND:                -1.315
REMARK  Name = 
REMARK  6 active torsions:
REMARK  status: ('A' for Active; 'I' for Inactive)
REMARK    1  A    between atoms: C_1  and  C_2
REMARK    2  A    between atoms: C_7  and  C_8
REMARK    3  A    between atoms: N_10  and  N_11
REMARK    4  A    between atoms: N_11  and  C_12
REMARK    5  A    between atoms: C_12  and  N_14
REMARK    6  A    between atoms: C_15  and  C_17
REMARK                            x       y       z     vdW  Elec       q    Type
REMARK                         _______ _______ _______ _____ _____    ______ ____
ROOT
ATOM      1  N   UNL     1      39.507  12.431  45.328  0.00  0.00    +0.000 N 
ATOM      2  H   UNL     1      39.690  13.432  45.251  0.00  0.00    +0.000 HD
ENDROOT
BRANCH   1   5
ATOM      3  C   UNL     1      41.517  11.112  44.633  0.00  0.00    +0.000 C 
ATOM      4  O   UNL     1      42.460  10.315  44.933  0.00  0.00    +0.000 OA
ATOM      5  N   UNL     1      40.560  11.541  45.664  0.00  0.00    +0.000 N 
ATOM      6  H   UNL     1      40.654  11.199  46.619  0.00  0.00    +0.000 HD
BRANCH   3  13
ATOM      7  C   UNL     1      42.958  13.556  43.788  0.00  0.00    +0.000 C 
ATOM      8  C   UNL     1      42.079  12.811  42.797  0.00  0.00    +0.000 A 
ATOM      9  C   UNL     1      41.947  13.294  41.447  0.00  0.00    +0.000 A 
ATOM     10  C   UNL     1      42.648  14.483  41.035  0.00  0.00    +0.000 A 
ATOM     11  C   UNL     1      42.517  14.966  39.685  0.00  0.00    +0.000 A 
ATOM     12  C   UNL     1      43.218  16.156  39.275  0.00  0.00    +0.000 A 
ATOM     13  C   UNL     1      41.378  11.622  43.208  0.00  0.00    +0.000 A 
ENDBRANCH   3  13
ENDBRANCH   1   5
BRANCH   1  14
ATOM     14  C   UNL     1      38.152  11.912  45.091  0.00  0.00    +0.000 C 
ATOM     15  S   UNL     1      37.912  10.320  44.920  0.00  0.00    +0.000 S 
BRANCH  14  16
ATOM     16  N   UNL     1      37.014  12.840  45.008  0.00  0.00    +0.000 N 
ATOM     17  C   UNL     1      36.703  13.509  43.737  0.00  0.00    +0.000 C 
ATOM     18  O   UNL     1      35.719  14.311  43.665  0.00  0.00    +0.000 OA
ATOM     19  H   UNL     1      36.442  13.020  45.833  0.00  0.00    +0.000 HD
BRANCH  17  20
ATOM     20  C   UNL     1      37.556  13.241  42.507  0.00  0.00    +0.000 A 
ATOM     21  C   UNL     1      37.209  12.169  41.610  0.00  0.00    +0.000 A 
ATOM     22  C   UNL     1      36.055  11.350  41.877  0.00  0.00    +0.000 A 
ATOM     23  C   UNL     1      35.709  10.279  40.979  0.00  0.00    +0.000 A 
ATOM     24  C   UNL     1      34.555   9.460  41.246  0.00  0.00    +0.000 A 
ATOM     25  C   UNL     1      38.710  14.059  42.240  0.00  0.00    +0.000 A 
ENDBRANCH  17  20
ENDBRANCH  14  16
ENDBRANCH   1  14
TORSDOF 5
ENDMDL
MODEL 9
REMARK VINA RESULT:    -6.219      3.251      4.316
REMARK INTER + INTRA:          -9.352
REMARK INTER:                  -7.875
REMARK INTRA:                  -1.477
REMARK UNBOUND:                -1.315
REMARK  Name = 
REMARK  6 active torsions:
REMARK  status: ('A' for Active; 'I' for Inactive)
REMARK    1  A    between atoms: C_1  and  C_2
REMARK    2  A    between atoms: C_7  and  C_8
REMARK    3  A    between atoms: N_10  and  N_11
REMARK    4  A    between atoms: N_11  and  C_12
REMARK    5  A    between atoms: C_12  and  N_14
REMARK    6  A    between atoms: C_15  and  C_17
REMARK                            x       y       z     vdW  Elec       q    Type
REMARK                         _______ _______ _______ _____ _____    ______ ____
ROOT
ATOM      1  N   UNL     1      14.236   1.924  26.772  0.00  0.00    +0.000 N 
ATOM      2  H   UNL     1      13.230   1.965  26.935  0.00  0.00    +0.000 HD
ENDROOT
BRANCH   1   5
ATOM      3  C   UNL     1      14.260  -0.412  25.875  0.00  0.00    +0.000 C 
ATOM      4  O   UNL     1      14.738  -1.270  25.069  0.00  0.00    +0.000 OA
ATOM      5  N   UNL     1      14.771   0.966  25.871  0.00  0.00    +0.000 N 
ATOM      6  H   UNL     1      15.509   1.234  25.221  0.00  0.00    +0.000 HD
BRANCH   3  13
ATOM      7  C   UNL     1      11.421  -0.030  25.128  0.00  0.00    +0.000 C 
ATOM      8  C   UNL     1      11.778  -0.626  26.480  0.00  0.00    +0.000 A 
ATOM      9  C   UNL     1      10.734  -1.004  27.398  0.00  0.00    +0.000 A 
ATOM     10  C   UNL     1       9.353  -0.818  27.035  0.00  0.00    +0.000 A 
ATOM     11  C   UNL     1       8.310  -1.196  27.952  0.00  0.00    +0.000 A 
ATOM     12  C   UNL     1       6.928  -1.010  27.588  0.00  0.00    +0.000 A 
ATOM     13  C   UNL     1      13.159  -0.812  26.843  0.00  0.00    +0.000 A 
ENDBRANCH   3  13
ENDBRANCH   1   5
BRANCH   1  14
ATOM     14  C   UNL     1      15.131   2.858  27.469  0.00  0.00    +0.000 C 
ATOM     15  S   UNL     1      16.411   2.297  28.286  0.00  0.00    +0.000 S 
BRANCH  14  16
ATOM     16  N   UNL     1      14.862   4.304  27.426  0.00  0.00    +0.000 N 
ATOM     17  C   UNL     1      13.996   4.920  28.440  0.00  0.00    +0.000 C 
ATOM     18  O   UNL     1      13.763   6.170  28.402  0.00  0.00    +0.000 OA
ATOM     19  H   UNL     1      15.278   4.877  26.692  0.00  0.00    +0.000 HD
BRANCH  17  20
ATOM     20  C   UNL     1      13.377   4.065  29.534  0.00  0.00    +0.000 A 
ATOM     21  C   UNL     1      12.129   3.384  29.297  0.00  0.00    +0.000 A 
ATOM     22  C   UNL     1      11.468   3.515  28.024  0.00  0.00    +0.000 A 
ATOM     23  C   UNL     1      10.221   2.833  27.788  0.00  0.00    +0.000 A 
ATOM     24  C   UNL     1       9.560   2.963  26.515  0.00  0.00    +0.000 A 
ATOM     25  C   UNL     1      14.038   3.935  30.806  0.00  0.00    +0.000 A 
ENDBRANCH  17  20
ENDBRANCH  14  16
ENDBRANCH   1  14
TORSDOF 5
ENDMDL
MODEL 10
REMARK VINA RESULT:    -6.127      2.952      5.016
REMARK INTER + INTRA:          -9.233
REMARK INTER:                  -8.251
REMARK INTRA:                  -0.982
REMARK UNBOUND:                -1.315
REMARK  Name = 
REMARK  6 active torsions:
REMARK  status: ('A' for Active; 'I' for Inactive)
REMARK    1  A    between atoms: C_1  and  C_2
REMARK    2  A    between atoms: C_7  and  C_8
REMARK    3  A    between atoms: N_10  and  N_11
REMARK    4  A    between atoms: N_11  and  C_12
REMARK    5  A    between atoms: C_12  and  N_14
REMARK    6  A    between atoms: C_15  and  C_17
REMARK                            x       y       z     vdW  Elec       q    Type
REMARK                         _______ _______ _______ _____ _____    ______ ____
ROOT
ATOM      1  N   UNL     1      10.885   3.844  27.701  0.00  0.00    +0.000 N 
ATOM      2  H   UNL     1      11.553   3.581  26.976  0.00  0.00    +0.000 HD
ENDROOT
BRANCH   1   5
ATOM      3  C   UNL     1       9.354   2.019  26.934  0.00  0.00    +0.000 C 
ATOM      4  O   UNL     1       8.228   1.434  27.002  0.00  0.00    +0.000 OA
ATOM      5  N   UNL     1       9.627   3.191  27.778  0.00  0.00    +0.000 N 
ATOM      6  H   UNL     1       8.913   3.533  28.420  0.00  0.00    +0.000 HD
BRANCH   3  13
ATOM      7  C   UNL     1       9.381   2.939  24.120  0.00  0.00    +0.000 C 
ATOM      8  C   UNL     1      10.431   1.955  24.608  0.00  0.00    +0.000 A 
ATOM      9  C   UNL     1      11.440   1.471  23.701  0.00  0.00    +0.000 A 
ATOM     10  C   UNL     1      11.453   1.918  22.332  0.00  0.00    +0.000 A 
ATOM     11  C   UNL     1      12.461   1.434  21.426  0.00  0.00    +0.000 A 
ATOM     12  C   UNL     1      12.474   1.882  20.057  0.00  0.00    +0.000 A 
ATOM     13  C   UNL     1      10.418   1.508  25.977  0.00  0.00    +0.000 A 
ENDBRANCH   3  13
ENDBRANCH   1   5
BRANCH   1  14
ATOM     14  C   UNL     1      11.226   4.899  28.665  0.00  0.00    +0.000 C 
ATOM     15  S   UNL     1      10.331   5.099  30.000  0.00  0.00    +0.000 S 
BRANCH  14  16
ATOM     16  N   UNL     1      12.382   5.776  28.417  0.00  0.00    +0.000 N 
ATOM     17  C   UNL     1      13.694   5.439  28.987  0.00  0.00    +0.000 C 
ATOM     18  O   UNL     1      14.692   6.196  28.773  0.00  0.00    +0.000 OA
ATOM     19  H   UNL     1      12.271   6.616  27.851  0.00  0.00    +0.000 HD
BRANCH  17  20
ATOM     20  C   UNL     1      13.858   4.185  29.832  0.00  0.00    +0.000 A 
ATOM     21  C   UNL     1      14.071   2.911  29.195  0.00  0.00    +0.000 A 
ATOM     22  C   UNL     1      14.128   2.824  27.759  0.00  0.00    +0.000 A 
ATOM     23  C   UNL     1      14.341   1.549  27.123  0.00  0.00    +0.000 A 
ATOM     24  C   UNL     1      14.398   1.461  25.687  0.00  0.00    +0.000 A 
ATOM     25  C   UNL     1      13.801   4.273  31.267  0.00  0.00    +0.000 A 
ENDBRANCH  17  20
ENDBRANCH  14  16
ENDBRANCH   1  14
TORSDOF 5
ENDMDL
