REMARK  Name = 
REMARK  10 active torsions:
REMARK  status: ('A' for Active; 'I' for Inactive)
REMARK    1  A    between atoms: C_1  and  O_2
REMARK    2  A    between atoms: O_2  and  C_3
REMARK    3  A    between atoms: C_6  and  N_7
REMARK    4  A    between atoms: C_8  and  C_9
REMARK    5  A    between atoms: C_10  and  N_11
REMARK    6  A    between atoms: C_17  and  O_18
REMARK    7  A    between atoms: C_19  and  C_20
REMARK    8  A    between atoms: C_20  and  N_21
REMARK    9  A    between atoms: N_21  and  C_22
REMARK   10  A    between atoms: N_21  and  C_23
REMARK                            x       y       z     vdW  Elec       q    Type
REMARK                         _______ _______ _______ _____ _____    ______ ____
ROOT
ATOM      1  N   UNL     1      -1.733   2.140  -5.686  0.00  0.00    +0.000 N 
ATOM      2  C   UNL     1      -2.069   0.803  -5.491  0.00  0.00    +0.000 A 
ATOM      3  C   UNL     1      -1.562   0.063  -4.263  0.00  0.00    +0.000 C 
ATOM      4  C   UNL     1      -2.897   0.121  -6.452  0.00  0.00    +0.000 A 
ATOM      5  C   UNL     1      -3.245  -1.262  -6.250  0.00  0.00    +0.000 A 
ATOM      6  C   UNL     1      -4.073  -1.944  -7.210  0.00  0.00    +0.000 A 
ATOM      7  C   UNL     1      -4.553  -1.243  -8.373  0.00  0.00    +0.000 A 
ATOM      8  C   UNL     1      -5.381  -1.925  -9.334  0.00  0.00    +0.000 A 
ATOM      9  C   UNL     1      -5.729  -3.308  -9.132  0.00  0.00    +0.000 A 
ATOM     10  C   UNL     1      -2.197   2.818  -6.811  0.00  0.00    +0.000 A 
ENDROOT
BRANCH   1  14
ATOM     11  C   UNL     1       0.901   2.116  -1.418  0.00  0.00    +0.000 A 
ATOM     12  C   UNL     1       0.421   2.817  -2.581  0.00  0.00    +0.000 A 
ATOM     13  C   UNL     1      -0.407   2.135  -3.542  0.00  0.00    +0.000 A 
ATOM     14  C   UNL     1      -0.888   2.836  -4.705  0.00  0.00    +0.000 A 
ATOM     15  C   UNL     1      -0.540   4.219  -4.907  0.00  0.00    +0.000 A 
ATOM     16  C   UNL     1       1.729   2.798  -0.457  0.00  0.00    +0.000 A 
BRANCH  11  18
ATOM     17  C   UNL     1       1.031   0.062  -0.072  0.00  0.00    +0.000 C 
ATOM     18  O   UNL     1       0.558   0.753  -1.219  0.00  0.00    +0.000 OA
ENDBRANCH  11  18
ENDBRANCH   1  14
BRANCH   4  19
ATOM     19  N   UNL     1      -3.387   0.836  -7.639  0.00  0.00    +0.000 N 
ATOM     20  O   UNL     1      -4.092   0.255  -8.457  0.00  0.00    +0.000 OA
ATOM     21  O   UNL     1      -3.056   2.151  -7.831  0.00  0.00    +0.000 OA
ENDBRANCH   4  19
BRANCH   8  22
ATOM     22  O   UNL     1      -5.854  -1.234 -10.481  0.00  0.00    +0.000 OA
ATOM     23  H   UNL     1      -5.613  -0.274 -10.621  0.00  0.00    +0.000 HD
ENDBRANCH   8  22
BRANCH   9  24
ATOM     24  C   UNL     1      -6.603  -4.028 -10.147  0.00  0.00    +0.000 C 
BRANCH  24  25
ATOM     25  N   UNL     1      -7.901  -3.346 -10.246  0.00  0.00    +0.000 NA
ATOM     26  C   UNL     1      -8.746  -4.042 -11.227  0.00  0.00    +0.000 C 
ATOM     27  C   UNL     1      -8.563  -3.358  -8.934  0.00  0.00    +0.000 C 
ENDBRANCH  24  25
ENDBRANCH   9  24
TORSDOF 6
