REMARK  Name = 
REMARK  7 active torsions:
REMARK  status: ('A' for Active; 'I' for Inactive)
REMARK    1  A    between atoms: C_1  and  C_2
REMARK    2  A    between atoms: C_2  and  C_3
REMARK    3  A    between atoms: N_5  and  C_6
REMARK    4  A    between atoms: C_6  and  C_7
REMARK    5  A    between atoms: C_6  and  C_16
REMARK    6  A    between atoms: C_10  and  N_11
REMARK    7  A    between atoms: C_17  and  O_18
REMARK                            x       y       z     vdW  Elec       q    Type
REMARK                         _______ _______ _______ _____ _____    ______ ____
ROOT
ATOM      1  C   UNL     1       3.492   0.499   1.752  0.00  0.00    +0.000 C 
ENDROOT
BRANCH   1   2
ATOM      2  C   UNL     1       4.366  -0.080   2.853  0.00  0.00    +0.000 A 
ATOM      3  C   UNL     1       5.187   0.790   3.653  0.00  0.00    +0.000 A 
ATOM      4  C   UNL     1       6.015   0.241   4.696  0.00  0.00    +0.000 A 
ATOM      5  C   UNL     1       6.022  -1.179   4.938  0.00  0.00    +0.000 A 
ATOM      6  C   UNL     1       6.850  -1.728   5.980  0.00  0.00    +0.000 A 
ATOM      7  C   UNL     1       7.671  -0.858   6.781  0.00  0.00    +0.000 A 
ATOM      8  C   UNL     1       7.665   0.562   6.539  0.00  0.00    +0.000 A 
ATOM      9  C   UNL     1       8.487   1.432   7.340  0.00  0.00    +0.000 A 
ATOM     10  C   UNL     1       8.481   2.852   7.098  0.00  0.00    +0.000 A 
ATOM     11  C   UNL     1       6.856  -3.148   6.222  0.00  0.00    +0.000 A 
BRANCH   3  12
ATOM     12  O   UNL     1       5.182   2.190   3.415  0.00  0.00    +0.000 OA
ATOM     13  H   UNL     1       4.607   2.571   2.691  0.00  0.00    +0.000 HD
ENDBRANCH   3  12
ENDBRANCH   1   2
BRANCH   1  14
ATOM     14  C   UNL     1       4.366   1.216   0.736  0.00  0.00    +0.000 A 
ATOM     15  C   UNL     1       3.765   1.853  -0.408  0.00  0.00    +0.000 A 
ATOM     16  C   UNL     1       2.337   1.809  -0.589  0.00  0.00    +0.000 A 
ATOM     17  C   UNL     1       1.737   2.446  -1.734  0.00  0.00    +0.000 A 
ATOM     18  C   UNL     1       2.565   3.125  -2.697  0.00  0.00    +0.000 A 
ATOM     19  C   UNL     1       5.794   1.259   0.918  0.00  0.00    +0.000 A 
BRANCH  17  20
ATOM     20  N   UNL     1       0.280   2.402  -1.919  0.00  0.00    +0.000 N 
ATOM     21  O   UNL     1      -0.231   2.943  -2.893  0.00  0.00    +0.000 OA
ATOM     22  O   UNL     1      -0.508   1.755  -1.003  0.00  0.00    +0.000 OA
ENDBRANCH  17  20
ENDBRANCH   1  14
BRANCH   1  25
ATOM     23  C   UNL     1       1.091   1.223   2.196  0.00  0.00    +0.000 C 
ATOM     24  O   UNL     1       0.265   2.047   2.700  0.00  0.00    +0.000 OA
ATOM     25  N   UNL     1       2.536   1.452   2.336  0.00  0.00    +0.000 N 
ATOM     26  H   UNL     1       2.876   2.272   2.839  0.00  0.00    +0.000 HD
BRANCH  23  28
ATOM     27  C   UNL     1       1.091   0.038   0.015  0.00  0.00    +0.000 C 
ATOM     28  C   UNL     1       0.585   0.001   1.447  0.00  0.00    +0.000 C 
ENDBRANCH  23  28
ENDBRANCH   1  25
TORSDOF 6
