REMARK  Name = 
REMARK  11 active torsions:
REMARK  status: ('A' for Active; 'I' for Inactive)
REMARK    1  A    between atoms: C_1  and  O_2
REMARK    2  A    between atoms: O_2  and  C_3
REMARK    3  A    between atoms: C_6  and  C_7
REMARK    4  A    between atoms: C_13  and  C_14
REMARK    5  A    between atoms: C_14  and  C_15
REMARK    6  A    between atoms: C_16  and  C_17
REMARK    7  A    between atoms: C_16  and  C_18
REMARK    8  A    between atoms: C_25  and  C_26
REMARK    9  A    between atoms: C_25  and  C_27
REMARK   10  A    between atoms: C_30  and  O_31
REMARK   11  A    between atoms: O_31  and  C_32
REMARK                            x       y       z     vdW  Elec       q    Type
REMARK                         _______ _______ _______ _____ _____    ______ ____
ROOT
ATOM      1  C   UNL     1      -1.707   6.034  -0.459  0.00  0.00    +0.000 C 
ATOM      2  C   UNL     1       0.926  10.766  -2.675  0.00  0.00    +0.000 C 
ATOM      3  C   UNL     1       0.242   9.527  -2.120  0.00  0.00    +0.000 C 
ATOM      4  O   UNL     1      -0.034   8.555  -2.890  0.00  0.00    +0.000 OA
ATOM      5  C   UNL     1      -0.111   9.451  -0.643  0.00  0.00    +0.000 A 
ATOM      6  C   UNL     1       0.202  10.553   0.230  0.00  0.00    +0.000 A 
ATOM      7  C   UNL     1      -0.133  10.481   1.629  0.00  0.00    +0.000 A 
ATOM      8  C   UNL     1      -0.782   9.308   2.154  0.00  0.00    +0.000 A 
ATOM      9  C   UNL     1      -4.642   6.527   1.940  0.00  0.00    +0.000 A 
ATOM     10  C   UNL     1      -0.760   8.278  -0.117  0.00  0.00    +0.000 A 
ATOM     11  O   UNL     1      -1.068   7.191  -0.978  0.00  0.00    +0.000 OA
ATOM     12  C   UNL     1      -3.312   6.731   2.647  0.00  0.00    +0.000 C 
ATOM     13  C   UNL     1      -3.081   7.876   3.345  0.00  0.00    +0.000 C 
ATOM     14  C   UNL     1      -1.751   8.080   4.052  0.00  0.00    +0.000 C 
ATOM     15  C   UNL     1      -0.865   6.866   3.824  0.00  0.00    +0.000 C 
ATOM     16  C   UNL     1      -1.992   8.259   5.542  0.00  0.00    +0.000 C 
ATOM     17  O   UNL     1      -1.112   9.237   3.534  0.00  0.00    +0.000 OA
ENDROOT
BRANCH   1  21
ATOM     18  C   UNL     1       0.955   2.125   1.334  0.00  0.00    +0.000 A 
ATOM     19  C   UNL     1       0.475   3.474   1.486  0.00  0.00    +0.000 A 
ATOM     20  C   UNL     1      -0.353   4.063   0.466  0.00  0.00    +0.000 A 
ATOM     21  C   UNL     1      -0.833   5.412   0.618  0.00  0.00    +0.000 A 
ATOM     22  C   UNL     1      -0.486   6.173   1.790  0.00  0.00    +0.000 A 
ATOM     23  C   UNL     1       1.783   1.536   2.355  0.00  0.00    +0.000 A 
BRANCH  18  25
ATOM     24  C   UNL     1       1.085   0.045   0.028  0.00  0.00    +0.000 C 
ATOM     25  O   UNL     1       0.612   1.375   0.178  0.00  0.00    +0.000 OA
ENDBRANCH  18  25
BRANCH  23  26
ATOM     26  O   UNL     1       2.256   0.205   2.205  0.00  0.00    +0.000 OA
ATOM     27  C   UNL     1       3.072  -0.376   3.211  0.00  0.00    +0.000 C 
ENDBRANCH  23  26
ENDBRANCH   1  21
BRANCH   7  28
ATOM     28  C   UNL     1       0.197  11.644   2.550  0.00  0.00    +0.000 C 
BRANCH  28  29
ATOM     29  C   UNL     1      -1.084  12.179   3.170  0.00  0.00    +0.000 C 
ATOM     30  C   UNL     1      -1.238  12.174   4.522  0.00  0.00    +0.000 C 
ATOM     31  C   UNL     1      -2.519  12.709   5.142  0.00  0.00    +0.000 C 
ATOM     32  C   UNL     1      -0.130  11.635   5.412  0.00  0.00    +0.000 C 
ENDBRANCH  28  29
ENDBRANCH   7  28
TORSDOF 5
