REMARK  Name = 
REMARK  8 active torsions:
REMARK  status: ('A' for Active; 'I' for Inactive)
REMARK    1  A    between atoms: C_1  and  C_2
REMARK    2  A    between atoms: C_2  and  O_3
REMARK    3  A    between atoms: O_3  and  C_4
REMARK    4  A    between atoms: C_4  and  C_6
REMARK    5  A    between atoms: C_7  and  C_8
REMARK    6  A    between atoms: C_8  and  C_9
REMARK    7  A    between atoms: C_12  and  C_13
REMARK    8  A    between atoms: C_23  and  O_24
REMARK                            x       y       z     vdW  Elec       q    Type
REMARK                         _______ _______ _______ _____ _____    ______ ____
ROOT
ATOM      1  C   UNL     1       2.856  -2.024  -3.301  0.00  0.00    +0.000 A 
ATOM      2  C   UNL     1       4.271  -2.228  -3.468  0.00  0.00    +0.000 A 
ATOM      3  N   UNL     1       4.736  -3.245  -4.298  0.00  0.00    +0.000 N 
ATOM      4  C   UNL     1       3.831  -4.065  -4.968  0.00  0.00    +0.000 A 
ATOM      5  C   UNL     1       1.503  -7.660  -7.903  0.00  0.00    +0.000 A 
ATOM      6  C   UNL     1       1.023  -6.609  -7.045  0.00  0.00    +0.000 A 
ATOM      7  C   UNL     1       1.959  -5.761  -6.352  0.00  0.00    +0.000 A 
ATOM      8  C   UNL     1       1.479  -4.709  -5.494  0.00  0.00    +0.000 A 
ATOM      9  C   UNL     1       0.063  -4.505  -5.327  0.00  0.00    +0.000 A 
ATOM     10  C   UNL     1      -0.417  -3.453  -4.468  0.00  0.00    +0.000 A 
ATOM     11  C   UNL     1      -1.833  -3.250  -4.302  0.00  0.00    +0.000 A 
ATOM     12  C   UNL     1       1.935  -2.809  -3.942  0.00  0.00    +0.000 A 
ATOM     13  C   UNL     1       2.415  -3.861  -4.801  0.00  0.00    +0.000 A 
ATOM     14  H   UNL     1       5.739  -3.389  -4.416  0.00  0.00    +0.000 HD
ENDROOT
BRANCH   1  15
ATOM     15  C   UNL     1       2.349  -0.914  -2.395  0.00  0.00    +0.000 C 
ATOM     16  O   UNL     1       3.175  -0.166  -1.784  0.00  0.00    +0.000 OA
BRANCH  15  17
ATOM     17  O   UNL     1       0.953  -0.713  -2.231  0.00  0.00    +0.000 OA
BRANCH  17  19
ATOM     18  C   UNL     1       0.986   0.094   0.031  0.00  0.00    +0.000 C 
ATOM     19  C   UNL     1       0.479   0.324  -1.384  0.00  0.00    +0.000 C 
ENDBRANCH  17  19
ENDBRANCH  15  17
ENDBRANCH   1  15
BRANCH   7  20
ATOM     20  O   UNL     1       3.355  -5.962  -6.516  0.00  0.00    +0.000 OA
ATOM     21  H   UNL     1       3.688  -6.692  -7.113  0.00  0.00    +0.000 HD
ENDBRANCH   7  20
BRANCH   2  22
ATOM     22  C   UNL     1       5.259  -1.333  -2.737  0.00  0.00    +0.000 C 
BRANCH  22  23
ATOM     23  C   UNL     1       6.133  -2.180  -1.826  0.00  0.00    +0.000 A 
ATOM     24  C   UNL     1       5.533  -2.965  -0.778  0.00  0.00    +0.000 A 
ATOM     25  C   UNL     1       4.105  -2.946  -0.593  0.00  0.00    +0.000 A 
ATOM     26  C   UNL     1       3.505  -3.731   0.456  0.00  0.00    +0.000 A 
ATOM     27  C   UNL     1       4.333  -4.534   1.318  0.00  0.00    +0.000 A 
ATOM     28  C   UNL     1       7.561  -2.199  -2.012  0.00  0.00    +0.000 A 
BRANCH  26  29
ATOM     29  C   UNL     1       1.998  -3.711   0.651  0.00  0.00    +0.000 C 
ATOM     30  F   UNL     1       1.516  -4.942   0.505  0.00  0.00    +0.000 F 
ATOM     31  F   UNL     1       1.715  -3.267   1.873  0.00  0.00    +0.000 F 
ATOM     32  F   UNL     1       1.444  -2.908  -0.252  0.00  0.00    +0.000 F 
ENDBRANCH  26  29
ENDBRANCH  22  23
ENDBRANCH   2  22
TORSDOF 7
