REMARK  Name = 
REMARK  7 active torsions:
REMARK  status: ('A' for Active; 'I' for Inactive)
REMARK    1  A    between atoms: C_1  and  O_2
REMARK    2  A    between atoms: O_2  and  C_3
REMARK    3  A    between atoms: C_6  and  C_7
REMARK    4  A    between atoms: N_9  and  N_10
REMARK    5  A    between atoms: N_10  and  C_11
REMARK    6  A    between atoms: C_11  and  N_13
REMARK    7  A    between atoms: C_14  and  C_16
REMARK                            x       y       z     vdW  Elec       q    Type
REMARK                         _______ _______ _______ _____ _____    ______ ____
ROOT
ATOM      1  N   UNL     1      -1.728   4.333  -0.253  0.00  0.00    +0.000 N 
ATOM      2  H   UNL     1      -1.142   3.667   0.251  0.00  0.00    +0.000 HD
ENDROOT
BRANCH   1   5
ATOM      3  C   UNL     1      -1.846   5.749   1.807  0.00  0.00    +0.000 C 
ATOM      4  O   UNL     1      -2.270   6.794   2.394  0.00  0.00    +0.000 OA
ATOM      5  N   UNL     1      -2.202   5.500   0.403  0.00  0.00    +0.000 N 
ATOM      6  H   UNL     1      -2.788   6.165  -0.101  0.00  0.00    +0.000 HD
BRANCH   3  10
ATOM      7  C   UNL     1       0.816   1.450   1.939  0.00  0.00    +0.000 A 
ATOM      8  C   UNL     1       0.336   2.634   2.604  0.00  0.00    +0.000 A 
ATOM      9  C   UNL     1      -0.492   3.574   1.893  0.00  0.00    +0.000 A 
ATOM     10  C   UNL     1      -0.973   4.758   2.558  0.00  0.00    +0.000 A 
ATOM     11  C   UNL     1      -0.625   5.002   3.934  0.00  0.00    +0.000 A 
ATOM     12  C   UNL     1       1.644   0.511   2.650  0.00  0.00    +0.000 A 
BRANCH   7  14
ATOM     13  C   UNL     1       0.946   0.042  -0.073  0.00  0.00    +0.000 C 
ATOM     14  O   UNL     1       0.473   1.209   0.583  0.00  0.00    +0.000 OA
ENDBRANCH   7  14
ENDBRANCH   3  10
ENDBRANCH   1   5
BRANCH   1  15
ATOM     15  C   UNL     1      -2.083   4.083  -1.657  0.00  0.00    +0.000 C 
ATOM     16  S   UNL     1      -1.543   2.751  -2.405  0.00  0.00    +0.000 S 
BRANCH  15  17
ATOM     17  N   UNL     1      -2.928   5.042  -2.383  0.00  0.00    +0.000 N 
ATOM     18  C   UNL     1      -3.418   6.251  -1.705  0.00  0.00    +0.000 C 
ATOM     19  O   UNL     1      -4.149   7.080  -2.332  0.00  0.00    +0.000 OA
ATOM     20  H   UNL     1      -3.175   4.869  -3.358  0.00  0.00    +0.000 HD
BRANCH  18  21
ATOM     21  C   UNL     1      -3.051   6.508  -0.253  0.00  0.00    +0.000 A 
ATOM     22  C   UNL     1      -3.531   7.692   0.412  0.00  0.00    +0.000 A 
ATOM     23  C   UNL     1      -4.359   8.632  -0.299  0.00  0.00    +0.000 A 
ATOM     24  C   UNL     1      -4.839   9.816   0.366  0.00  0.00    +0.000 A 
ATOM     25 CL   UNL     1      -5.863  10.977  -0.513  0.00  0.00    +0.000 Cl
ATOM     26  C   UNL     1      -4.491  10.060   1.742  0.00  0.00    +0.000 A 
ATOM     27  C   UNL     1      -2.223   5.569   0.459  0.00  0.00    +0.000 A 
ENDBRANCH  18  21
ENDBRANCH  15  17
ENDBRANCH   1  15
TORSDOF 6
