REMARK  Name = 
REMARK  5 active torsions:
REMARK  status: ('A' for Active; 'I' for Inactive)
REMARK    1  A    between atoms: C_1  and  O_2
REMARK    2  A    between atoms: O_2  and  C_3
REMARK    3  A    between atoms: C_9  and  O_10
REMARK    4  A    between atoms: O_10  and  C_11
REMARK    5  A    between atoms: C_16  and  C_17
REMARK                            x       y       z     vdW  Elec       q    Type
REMARK                         _______ _______ _______ _____ _____    ______ ____
ROOT
ATOM      1  C   UNL     1       0.969   2.178  -1.122  0.00  0.00    +0.000 A 
ATOM      2  C   UNL     1       0.489   2.994  -2.207  0.00  0.00    +0.000 A 
ATOM      3  O   UNL     1       0.814   4.298  -2.263  0.00  0.00    +0.000 OA
ATOM      4  C   UNL     1       0.366   5.061  -3.277  0.00  0.00    +0.000 A 
ATOM      5  C   UNL     1      -0.462   4.481  -4.302  0.00  0.00    +0.000 A 
ATOM      6  C   UNL     1      -0.339   2.414  -3.233  0.00  0.00    +0.000 A 
ATOM      7  C   UNL     1      -0.687   1.017  -3.174  0.00  0.00    +0.000 A 
ATOM      8  C   UNL     1      -1.515   0.437  -4.199  0.00  0.00    +0.000 A 
ATOM      9  C   UNL     1      -1.862  -0.959  -4.140  0.00  0.00    +0.000 A 
ATOM     10  O   UNL     1      -1.439  -1.679  -3.182  0.00  0.00    +0.000 OA
ATOM     11  C   UNL     1      -2.690  -1.539  -5.165  0.00  0.00    +0.000 A 
ATOM     12  C   UNL     1      -3.171  -0.723  -6.251  0.00  0.00    +0.000 A 
ATOM     13  C   UNL     1      -4.044  -1.335  -7.333  0.00  0.00    +0.000 C 
ATOM     14  O   UNL     1      -2.846   0.581  -6.306  0.00  0.00    +0.000 OA
ATOM     15  C   UNL     1      -1.995   1.253  -5.284  0.00  0.00    +0.000 A 
ENDROOT
BRANCH   1  17
ATOM     16  C   UNL     1       1.100  -0.004   0.006  0.00  0.00    +0.000 C 
ATOM     17  O   UNL     1       0.626   0.801  -1.064  0.00  0.00    +0.000 OA
ENDBRANCH   1  17
BRANCH   7  18
ATOM     18  O   UNL     1      -0.213   0.213  -2.104  0.00  0.00    +0.000 OA
ATOM     19  C   UNL     1       0.603   0.785  -1.092  0.00  0.00    +0.000 C 
ENDBRANCH   7  18
TORSDOF 2
