REMARK  Name = 
REMARK  13 active torsions:
REMARK  status: ('A' for Active; 'I' for Inactive)
REMARK    1  A    between atoms: C_1  and  C_2
REMARK    2  A    between atoms: C_2  and  C_3
REMARK    3  A    between atoms: C_6  and  C_7
REMARK    4  A    between atoms: N_12  and  C_13
REMARK    5  A    between atoms: C_13  and  C_14
REMARK    6  A    between atoms: C_14  and  C_15
REMARK    7  A    between atoms: C_15  and  C_16
REMARK    8  A    between atoms: C_16  and  O_17
REMARK    9  A    between atoms: O_17  and  C_18
REMARK   10  A    between atoms: C_21  and  C_22
REMARK   11  A    between atoms: C_28  and  C_29
REMARK   12  A    between atoms: C_35  and  O_36
REMARK   13  A    between atoms: O_36  and  C_37
REMARK                            x       y       z     vdW  Elec       q    Type
REMARK                         _______ _______ _______ _____ _____    ______ ____
ROOT
ATOM      1  C   UNL     1       1.326   0.757  -1.129  0.00  0.00    +0.000 A 
ATOM      2  C   UNL     1       0.390  -0.285  -1.467  0.00  0.00    +0.000 A 
ATOM      3  C   UNL     1       0.870  -1.576  -1.885  0.00  0.00    +0.000 A 
ATOM      4  C   UNL     1      -0.066  -2.618  -2.223  0.00  0.00    +0.000 A 
ATOM      5  O   UNL     1       0.358  -3.758  -2.593  0.00  0.00    +0.000 OA
ATOM      6  N   UNL     1      -1.435  -2.376  -2.145  0.00  0.00    +0.000 N 
ATOM      7  N   UNL     1       0.861   2.006  -0.724  0.00  0.00    +0.000 NA
ENDROOT
BRANCH   1  11
ATOM      8  C   UNL     1       0.948  -1.590  -1.890  0.00  0.00    +0.000 A 
ATOM      9  C   UNL     1       2.364  -1.841  -1.971  0.00  0.00    +0.000 A 
ATOM     10  C   UNL     1       3.300  -0.799  -1.634  0.00  0.00    +0.000 A 
ATOM     11  C   UNL     1       2.820   0.492  -1.215  0.00  0.00    +0.000 A 
ATOM     12  C   UNL     1       3.756   1.534  -0.877  0.00  0.00    +0.000 A 
ATOM     13  C   UNL     1       5.172   1.283  -0.958  0.00  0.00    +0.000 A 
ATOM     14  C   UNL     1       6.108   2.325  -0.621  0.00  0.00    +0.000 A 
ATOM     15  N   UNL     1       4.670  -1.041  -1.712  0.00  0.00    +0.000 N 
ATOM     16  N   UNL     1       0.043  -2.597  -2.216  0.00  0.00    +0.000 NA
BRANCH   8  18
ATOM     17  C   UNL     1       0.948   0.072  -0.047  0.00  0.00    +0.000 C 
ATOM     18  C   UNL     1       0.442  -0.227  -1.448  0.00  0.00    +0.000 C 
ENDBRANCH   8  18
BRANCH  14  19
ATOM     19  O   UNL     1       5.634   3.598  -0.208  0.00  0.00    +0.000 OA
ATOM     20  C   UNL     1       6.557   4.625   0.125  0.00  0.00    +0.000 C 
ENDBRANCH  14  19
ENDBRANCH   1  11
BRANCH   6  21
ATOM     21  C   UNL     1      -2.391  -3.438  -2.489  0.00  0.00    +0.000 C 
BRANCH  21  22
ATOM     22  C   UNL     1      -2.175  -3.865  -3.932  0.00  0.00    +0.000 C 
BRANCH  22  23
ATOM     23  C   UNL     1      -0.757  -4.385  -4.100  0.00  0.00    +0.000 C 
BRANCH  23  24
ATOM     24  C   UNL     1      -0.541  -5.577  -3.182  0.00  0.00    +0.000 C 
BRANCH  24  25
ATOM     25  O   UNL     1      -1.464  -6.603  -3.515  0.00  0.00    +0.000 OA
BRANCH  25  26
ATOM     26  C   UNL     1      -2.860  -6.356  -3.435  0.00  0.00    +0.000 A 
ATOM     27  C   UNL     1      -3.796  -7.398  -3.773  0.00  0.00    +0.000 A 
ATOM     28  C   UNL     1      -3.316  -8.689  -4.191  0.00  0.00    +0.000 A 
ATOM     29  C   UNL     1      -4.252  -9.731  -4.529  0.00  0.00    +0.000 A 
ATOM     30  C   UNL     1      -5.668  -9.480  -4.448  0.00  0.00    +0.000 A 
ATOM     31  C   UNL     1      -3.340  -5.065  -3.016  0.00  0.00    +0.000 A 
BRANCH  29  32
ATOM     32  C   UNL     1      -3.745 -11.094  -4.971  0.00  0.00    +0.000 C 
ATOM     33  N   UNL     1      -2.452 -11.323  -5.045  0.00  0.00    +0.000 NA
ATOM     34  N   UNL     1      -1.979 -12.596  -5.458  0.00  0.00    +0.000 N 
ATOM     35  C   UNL     1      -2.934 -13.659  -5.802  0.00  0.00    +0.000 C 
ATOM     36  O   UNL     1      -2.510 -14.799  -6.172  0.00  0.00    +0.000 OA
ATOM     37  C   UNL     1      -4.428 -13.395  -5.717  0.00  0.00    +0.000 C 
ATOM     38  C   UNL     1      -4.733 -12.193  -5.327  0.00  0.00    +0.000 C 
ATOM     39  C   UNL     1      -4.518 -13.385  -4.409  0.00  0.00    +0.000 C 
ATOM     40  H   UNL     1      -0.976 -12.774  -5.515  0.00  0.00    +0.000 HD
ENDBRANCH  29  32
ENDBRANCH  25  26
ENDBRANCH  24  25
ENDBRANCH  23  24
ENDBRANCH  22  23
ENDBRANCH  21  22
ENDBRANCH   6  21
TORSDOF 10
