REMARK  Name = 
REMARK  8 active torsions:
REMARK  status: ('A' for Active; 'I' for Inactive)
REMARK    1  A    between atoms: C_1  and  O_2
REMARK    2  A    between atoms: O_2  and  C_3
REMARK    3  A    between atoms: C_7  and  C_8
REMARK    4  A    between atoms: C_11  and  C_12
REMARK    5  A    between atoms: N_14  and  C_15
REMARK    6  A    between atoms: C_15  and  C_16
REMARK    7  A    between atoms: C_16  and  C_17
REMARK    8  A    between atoms: C_18  and  C_19
REMARK                            x       y       z     vdW  Elec       q    Type
REMARK                         _______ _______ _______ _____ _____    ______ ____
ROOT
ATOM      1  C   UNL     1      -4.822  -9.388   2.295  0.00  0.00    +0.000 C 
ATOM      2  O   UNL     1      -5.552 -10.005   3.131  0.00  0.00    +0.000 OA
ATOM      3  N   UNL     1      -4.467 -10.026   1.018  0.00  0.00    +0.000 N 
ATOM      4  H   UNL     1      -4.807 -10.963   0.805  0.00  0.00    +0.000 HD
ENDROOT
BRANCH   1   8
ATOM      5  C   UNL     1      -2.179  -5.268   1.018  0.00  0.00    +0.000 A 
ATOM      6  C   UNL     1      -3.007  -5.968   1.967  0.00  0.00    +0.000 A 
ATOM      7  C   UNL     1      -3.487  -7.292   1.665  0.00  0.00    +0.000 A 
ATOM      8  C   UNL     1      -4.315  -7.991   2.613  0.00  0.00    +0.000 A 
ATOM      9  C   UNL     1      -4.663  -7.367   3.863  0.00  0.00    +0.000 A 
ATOM     10  N   UNL     1      -1.715  -3.988   1.310  0.00  0.00    +0.000 NA
BRANCH   5  15
ATOM     11  C   UNL     1       0.804  -1.881  -1.595  0.00  0.00    +0.000 A 
ATOM     12  C   UNL     1       0.324  -3.205  -1.896  0.00  0.00    +0.000 A 
ATOM     13  C   UNL     1      -0.504  -3.904  -0.948  0.00  0.00    +0.000 A 
ATOM     14  C   UNL     1      -0.984  -5.228  -1.250  0.00  0.00    +0.000 A 
ATOM     15  C   UNL     1      -1.812  -5.927  -0.301  0.00  0.00    +0.000 A 
ATOM     16  C   UNL     1       1.632  -1.182  -2.543  0.00  0.00    +0.000 A 
BRANCH  11  18
ATOM     17  C   UNL     1       0.935   0.040  -0.064  0.00  0.00    +0.000 C 
ATOM     18  O   UNL     1       0.461  -1.265  -0.362  0.00  0.00    +0.000 OA
ENDBRANCH  11  18
ENDBRANCH   5  15
ENDBRANCH   1   8
BRANCH   3  19
ATOM     19  C   UNL     1      -3.622  -9.312   0.050  0.00  0.00    +0.000 C 
BRANCH  19  20
ATOM     20  C   UNL     1      -2.355 -10.113  -0.204  0.00  0.00    +0.000 C 
BRANCH  20  21
ATOM     21  C   UNL     1      -2.722 -11.478  -0.762  0.00  0.00    +0.000 A 
ATOM     22  C   UNL     1      -3.550 -12.371   0.007  0.00  0.00    +0.000 A 
ATOM     23  C   UNL     1      -4.057 -11.948   1.376  0.00  0.00    +0.000 C 
ATOM     24  N   UNL     1      -3.887 -13.622  -0.504  0.00  0.00    +0.000 N 
ATOM     25  C   UNL     1      -3.422 -14.010  -1.759  0.00  0.00    +0.000 A 
ATOM     26  C   UNL     1      -2.594 -13.116  -2.528  0.00  0.00    +0.000 A 
ATOM     27  C   UNL     1      -2.246 -11.823  -1.999  0.00  0.00    +0.000 A 
ATOM     28  C   UNL     1      -1.418 -10.930  -2.768  0.00  0.00    +0.000 A 
ATOM     29  C   UNL     1      -1.070  -9.636  -2.239  0.00  0.00    +0.000 A 
ATOM     30  C   UNL     1      -3.770 -15.303  -2.288  0.00  0.00    +0.000 A 
ATOM     31  H   UNL     1      -4.473 -14.255   0.040  0.00  0.00    +0.000 HD
ENDBRANCH  20  21
ENDBRANCH  19  20
ENDBRANCH   3  19
TORSDOF 6
