REMARK  Name = 
REMARK  8 active torsions:
REMARK  status: ('A' for Active; 'I' for Inactive)
REMARK    1  A    between atoms: C_1  and  O_2
REMARK    2  A    between atoms: O_2  and  C_3
REMARK    3  A    between atoms: C_6  and  C_7
REMARK    4  A    between atoms: C_7  and  C_8
REMARK    5  A    between atoms: C_7  and  C_9
REMARK    6  A    between atoms: C_9  and  N_10
REMARK    7  A    between atoms: C_17  and  O_18
REMARK    8  A    between atoms: O_18  and  C_19
REMARK                            x       y       z     vdW  Elec       q    Type
REMARK                         _______ _______ _______ _____ _____    ______ ____
ROOT
ATOM      1  C   UNL     1       0.944   0.930  -2.291  0.00  0.00    +0.000 A 
ATOM      2  C   UNL     1       0.464   0.810  -3.644  0.00  0.00    +0.000 A 
ATOM      3  C   UNL     1      -0.364  -0.308  -4.017  0.00  0.00    +0.000 A 
ATOM      4  C   UNL     1      -0.844  -0.429  -5.369  0.00  0.00    +0.000 A 
ATOM      5  C   UNL     1      -0.496   0.568  -6.349  0.00  0.00    +0.000 A 
ATOM      6  C   UNL     1       1.772   2.048  -1.918  0.00  0.00    +0.000 A 
ENDROOT
BRANCH   1   8
ATOM      7  C   UNL     1       1.074   0.066   0.008  0.00  0.00    +0.000 C 
ATOM      8  O   UNL     1       0.601  -0.053  -1.326  0.00  0.00    +0.000 OA
ENDBRANCH   1   8
BRANCH   4   9
ATOM      9  C   UNL     1      -1.718  -1.609  -5.763  0.00  0.00    +0.000 C 
ATOM     10  C   UNL     1      -3.061  -1.100  -6.263  0.00  0.00    +0.000 C 
BRANCH   9  11
ATOM     11  C   UNL     1      -1.034  -2.400  -6.866  0.00  0.00    +0.000 C 
BRANCH  11  12
ATOM     12  N   UNL     1       0.265  -2.892  -6.383  0.00  0.00    +0.000 N 
ATOM     13  C   UNL     1       1.239  -1.989  -5.963  0.00  0.00    +0.000 A 
ATOM     14  C   UNL     1       0.974  -0.574  -6.002  0.00  0.00    +0.000 A 
ATOM     15  N   UNL     1       1.948   0.329  -5.581  0.00  0.00    +0.000 N 
ATOM     16  C   UNL     1       0.521  -4.260  -6.346  0.00  0.00    +0.000 A 
ATOM     17  O   UNL     1      -0.368  -5.084  -6.729  0.00  0.00    +0.000 OA
ATOM     18  H   UNL     1       2.848  -0.012  -5.246  0.00  0.00    +0.000 HD
ENDBRANCH  11  12
ENDBRANCH   9  11
ENDBRANCH   4   9
BRANCH   6  19
ATOM     19  O   UNL     1       2.245   2.167  -0.585  0.00  0.00    +0.000 OA
BRANCH  19  20
ATOM     20  C   UNL     1       3.062   3.269  -0.217  0.00  0.00    +0.000 C 
ATOM     21  C   UNL     1       2.302   4.564  -0.454  0.00  0.00    +0.000 C 
ATOM     22  C   UNL     1       1.035   4.569   0.386  0.00  0.00    +0.000 C 
ATOM     23  C   UNL     1       1.402   4.459   1.857  0.00  0.00    +0.000 C 
ATOM     24  C   UNL     1       4.328   3.264  -1.057  0.00  0.00    +0.000 C 
ENDBRANCH  19  20
ENDBRANCH   6  19
TORSDOF 6
