REMARK  Name = 
REMARK  8 active torsions:
REMARK  status: ('A' for Active; 'I' for Inactive)
REMARK    1  A    between atoms: C_1  and  O_2
REMARK    2  A    between atoms: O_2  and  C_3
REMARK    3  A    between atoms: C_8  and  C_9
REMARK    4  A    between atoms: N_11  and  C_12
REMARK    5  A    between atoms: C_17  and  C_18
REMARK    6  A    between atoms: C_18  and  C_19
REMARK    7  A    between atoms: C_18  and  C_20
REMARK    8  A    between atoms: C_18  and  O_21
REMARK                            x       y       z     vdW  Elec       q    Type
REMARK                         _______ _______ _______ _____ _____    ______ ____
ROOT
ATOM      1  C   UNL     1       0.629   4.959  -5.760  0.00  0.00    +0.000 C 
ATOM      2  O   UNL     1       1.360   5.778  -5.120  0.00  0.00    +0.000 OA
ATOM      3  N   UNL     1       0.139   5.305  -7.102  0.00  0.00    +0.000 N 
ATOM      4  H   UNL     1       0.385   6.203  -7.519  0.00  0.00    +0.000 HD
ENDROOT
BRANCH   1  10
ATOM      5  C   UNL     1       0.874   1.674  -1.922  0.00  0.00    +0.000 A 
ATOM      6  C   UNL     1       0.394   2.013  -3.236  0.00  0.00    +0.000 A 
ATOM      7  C   UNL     1      -0.434   1.085  -3.963  0.00  0.00    +0.000 A 
ATOM      8  C   UNL     1      -0.914   1.425  -5.277  0.00  0.00    +0.000 A 
ATOM      9  C   UNL     1      -0.566   2.693  -5.866  0.00  0.00    +0.000 A 
ATOM     10  C   UNL     1       0.262   3.621  -5.140  0.00  0.00    +0.000 A 
ATOM     11  C   UNL     1       0.742   3.281  -3.825  0.00  0.00    +0.000 A 
ATOM     12  N   UNL     1       0.405   2.055  -3.256  0.00  0.00    +0.000 NA
ATOM     13  C   UNL     1      -1.742   0.497  -6.004  0.00  0.00    +0.000 A 
ATOM     14  C   UNL     1       1.702   2.602  -1.196  0.00  0.00    +0.000 A 
BRANCH   5  16
ATOM     15  C   UNL     1       1.004   0.089  -0.045  0.00  0.00    +0.000 C 
ATOM     16  O   UNL     1       0.531   0.424  -1.342  0.00  0.00    +0.000 OA
ENDBRANCH   5  16
ENDBRANCH   1  10
BRANCH   3  17
ATOM     17  C   UNL     1      -0.706   4.358  -7.844  0.00  0.00    +0.000 C 
ATOM     18  C   UNL     1      -0.022   3.982  -9.148  0.00  0.00    +0.000 C 
ATOM     19  C   UNL     1       1.320   3.336  -8.848  0.00  0.00    +0.000 C 
ATOM     20  C   UNL     1      -2.049   5.005  -8.144  0.00  0.00    +0.000 C 
ATOM     21  C   UNL     1       2.194   4.315  -8.081  0.00  0.00    +0.000 C 
ATOM     22  C   UNL     1       2.410   5.565  -8.919  0.00  0.00    +0.000 C 
ATOM     23  C   UNL     1       2.004   2.960 -10.152  0.00  0.00    +0.000 C 
BRANCH  22  24
ATOM     24  C   UNL     1       3.283   6.544  -8.153  0.00  0.00    +0.000 C 
ATOM     25  C   UNL     1       4.626   5.898  -7.853  0.00  0.00    +0.000 C 
ATOM     26  C   UNL     1       3.499   7.794  -8.990  0.00  0.00    +0.000 C 
BRANCH  24  27
ATOM     27  O   UNL     1       2.644   6.896  -6.934  0.00  0.00    +0.000 OA
ATOM     28  H   UNL     1       3.219   7.540  -6.430  0.00  0.00    +0.000 HD
ENDBRANCH  24  27
ENDBRANCH  22  24
ENDBRANCH   3  17
TORSDOF 5
