MODEL 1
REMARK VINA RESULT:    -6.190      0.000      0.000
REMARK INTER + INTRA:         -10.046
REMARK INTER:                  -8.361
REMARK INTRA:                  -1.685
REMARK UNBOUND:                -1.685
REMARK  Name = 
REMARK  8 active torsions:
REMARK  status: ('A' for Active; 'I' for Inactive)
REMARK    1  A    between atoms: C_1  and  O_2
REMARK    2  A    between atoms: O_2  and  C_3
REMARK    3  A    between atoms: C_6  and  C_7
REMARK    4  A    between atoms: N_9  and  C_10
REMARK    5  A    between atoms: C_10  and  N_12
REMARK    6  A    between atoms: N_12  and  N_13
REMARK    7  A    between atoms: C_14  and  C_16
REMARK    8  A    between atoms: C_21  and  C_22
REMARK                            x       y       z     vdW  Elec       q    Type
REMARK                         _______ _______ _______ _____ _____    ______ ____
ROOT
ATOM      1  C   UNL     1      37.542  12.998  42.239  0.00  0.00    +0.000 C 
ATOM      2  S   UNL     1      36.923  11.619  41.656  0.00  0.00    +0.000 S 
ENDROOT
BRANCH   1   5
ATOM      3  C   UNL     1      36.713  13.916  44.466  0.00  0.00    +0.000 C 
ATOM      4  O   UNL     1      35.975  14.718  45.119  0.00  0.00    +0.000 OA
ATOM      5  N   UNL     1      36.689  13.925  42.996  0.00  0.00    +0.000 N 
ATOM      6  H   UNL     1      36.078  14.577  42.500  0.00  0.00    +0.000 HD
BRANCH   3  10
ATOM      7  C   UNL     1      41.107  12.863  46.739  0.00  0.00    +0.000 A 
ATOM      8  C   UNL     1      39.795  12.445  46.321  0.00  0.00    +0.000 A 
ATOM      9  C   UNL     1      38.934  13.365  45.622  0.00  0.00    +0.000 A 
ATOM     10  C   UNL     1      37.622  12.945  45.203  0.00  0.00    +0.000 A 
ATOM     11  C   UNL     1      37.169  11.607  45.483  0.00  0.00    +0.000 A 
ATOM     12  C   UNL     1      41.968  11.944  47.438  0.00  0.00    +0.000 A 
BRANCH   7  14
ATOM     13  C   UNL     1      42.939  14.444  46.296  0.00  0.00    +0.000 C 
ATOM     14  O   UNL     1      41.553  14.183  46.464  0.00  0.00    +0.000 OA
ENDBRANCH   7  14
ENDBRANCH   3  10
ENDBRANCH   1   5
BRANCH   1  15
ATOM     15  N   UNL     1      38.958  13.322  42.013  0.00  0.00    +0.000 N 
ATOM     16  H   UNL     1      39.455  13.923  42.671  0.00  0.00    +0.000 HD
BRANCH  15  17
ATOM     17  N   UNL     1      39.634  12.799  40.879  0.00  0.00    +0.000 N 
ATOM     18  C   UNL     1      41.102  12.736  40.862  0.00  0.00    +0.000 C 
ATOM     19  O   UNL     1      41.706  12.267  39.848  0.00  0.00    +0.000 OA
ATOM     20  H   UNL     1      39.099  12.467  40.076  0.00  0.00    +0.000 HD
BRANCH  18  21
ATOM     21  C   UNL     1      41.898  13.229  42.060  0.00  0.00    +0.000 A 
ATOM     22  C   UNL     1      42.123  12.357  43.184  0.00  0.00    +0.000 A 
ATOM     23  C   UNL     1      41.595  11.017  43.172  0.00  0.00    +0.000 A 
ATOM     24  C   UNL     1      41.820  10.144  44.296  0.00  0.00    +0.000 A 
ATOM     25  C   UNL     1      41.292   8.805  44.285  0.00  0.00    +0.000 A 
ATOM     26  C   UNL     1      42.425  14.569  42.071  0.00  0.00    +0.000 A 
ATOM     27  C   UNL     1      42.188  15.490  40.885  0.00  0.00    +0.000 C 
ENDBRANCH  18  21
ENDBRANCH  15  17
ENDBRANCH   1  15
TORSDOF 6
ENDMDL
MODEL 2
REMARK VINA RESULT:    -6.131     30.123     32.431
REMARK INTER + INTRA:          -9.966
REMARK INTER:                  -9.014
REMARK INTRA:                  -0.953
REMARK UNBOUND:                -1.685
REMARK  Name = 
REMARK  8 active torsions:
REMARK  status: ('A' for Active; 'I' for Inactive)
REMARK    1  A    between atoms: C_1  and  O_2
REMARK    2  A    between atoms: O_2  and  C_3
REMARK    3  A    between atoms: C_6  and  C_7
REMARK    4  A    between atoms: N_9  and  C_10
REMARK    5  A    between atoms: C_10  and  N_12
REMARK    6  A    between atoms: N_12  and  N_13
REMARK    7  A    between atoms: C_14  and  C_16
REMARK    8  A    between atoms: C_21  and  C_22
REMARK                            x       y       z     vdW  Elec       q    Type
REMARK                         _______ _______ _______ _____ _____    ______ ____
ROOT
ATOM      1  C   UNL     1      12.460   4.897  28.966  0.00  0.00    +0.000 C 
ATOM      2  S   UNL     1      11.066   4.197  28.528  0.00  0.00    +0.000 S 
ENDROOT
BRANCH   1   5
ATOM      3  C   UNL     1      14.386   3.308  29.466  0.00  0.00    +0.000 C 
ATOM      4  O   UNL     1      15.150   2.735  30.304  0.00  0.00    +0.000 OA
ATOM      5  N   UNL     1      13.343   4.233  29.934  0.00  0.00    +0.000 N 
ATOM      6  H   UNL     1      13.233   4.414  30.933  0.00  0.00    +0.000 HD
BRANCH   3  10
ATOM      7  C   UNL     1      13.344   0.561  25.349  0.00  0.00    +0.000 A 
ATOM      8  C   UNL     1      14.024   1.672  25.960  0.00  0.00    +0.000 A 
ATOM      9  C   UNL     1      13.869   1.927  27.369  0.00  0.00    +0.000 A 
ATOM     10  C   UNL     1      14.550   3.039  27.979  0.00  0.00    +0.000 A 
ATOM     11  C   UNL     1      15.387   3.898  27.180  0.00  0.00    +0.000 A 
ATOM     12  C   UNL     1      13.499   0.305  23.941  0.00  0.00    +0.000 A 
BRANCH   7  14
ATOM     13  C   UNL     1      13.008  -1.543  26.582  0.00  0.00    +0.000 C 
ATOM     14  O   UNL     1      12.518  -0.286  26.137  0.00  0.00    +0.000 OA
ENDBRANCH   7  14
ENDBRANCH   3  10
ENDBRANCH   1   5
BRANCH   1  15
ATOM     15  N   UNL     1      12.842   6.196  28.393  0.00  0.00    +0.000 N 
ATOM     16  H   UNL     1      12.238   6.648  27.706  0.00  0.00    +0.000 HD
BRANCH  15  17
ATOM     17  N   UNL     1      14.051   6.822  28.796  0.00  0.00    +0.000 N 
ATOM     18  C   UNL     1      14.018   7.942  29.747  0.00  0.00    +0.000 C 
ATOM     19  O   UNL     1      15.100   8.502  30.108  0.00  0.00    +0.000 OA
ATOM     20  H   UNL     1      14.942   6.494  28.425  0.00  0.00    +0.000 HD
BRANCH  18  21
ATOM     21  C   UNL     1      12.688   8.430  30.301  0.00  0.00    +0.000 A 
ATOM     22  C   UNL     1      11.946   9.446  29.599  0.00  0.00    +0.000 A 
ATOM     23  C   UNL     1      12.464  10.000  28.374  0.00  0.00    +0.000 A 
ATOM     24  C   UNL     1      11.722  11.016  27.673  0.00  0.00    +0.000 A 
ATOM     25  C   UNL     1      12.240  11.570  26.449  0.00  0.00    +0.000 A 
ATOM     26  C   UNL     1      12.172   7.876  31.525  0.00  0.00    +0.000 A 
ATOM     27  C   UNL     1      12.954   6.804  32.265  0.00  0.00    +0.000 C 
ENDBRANCH  18  21
ENDBRANCH  15  17
ENDBRANCH   1  15
TORSDOF 6
ENDMDL
MODEL 3
REMARK VINA RESULT:    -6.054     26.958     29.376
REMARK INTER + INTRA:          -9.862
REMARK INTER:                  -8.249
REMARK INTRA:                  -1.613
REMARK UNBOUND:                -1.685
REMARK  Name = 
REMARK  8 active torsions:
REMARK  status: ('A' for Active; 'I' for Inactive)
REMARK    1  A    between atoms: C_1  and  O_2
REMARK    2  A    between atoms: O_2  and  C_3
REMARK    3  A    between atoms: C_6  and  C_7
REMARK    4  A    between atoms: N_9  and  C_10
REMARK    5  A    between atoms: C_10  and  N_12
REMARK    6  A    between atoms: N_12  and  N_13
REMARK    7  A    between atoms: C_14  and  C_16
REMARK    8  A    between atoms: C_21  and  C_22
REMARK                            x       y       z     vdW  Elec       q    Type
REMARK                         _______ _______ _______ _____ _____    ______ ____
ROOT
ATOM      1  C   UNL     1      32.048  -7.518  28.611  0.00  0.00    +0.000 C 
ATOM      2  S   UNL     1      31.830  -7.830  30.186  0.00  0.00    +0.000 S 
ENDROOT
BRANCH   1   5
ATOM      3  C   UNL     1      33.756  -8.947  27.375  0.00  0.00    +0.000 C 
ATOM      4  O   UNL     1      34.907  -9.081  26.853  0.00  0.00    +0.000 OA
ATOM      5  N   UNL     1      33.379  -7.674  28.008  0.00  0.00    +0.000 N 
ATOM      6  H   UNL     1      34.042  -6.898  28.028  0.00  0.00    +0.000 HD
BRANCH   3  10
ATOM      7  C   UNL     1      31.554 -12.913  29.612  0.00  0.00    +0.000 A 
ATOM      8  C   UNL     1      31.693 -12.055  28.465  0.00  0.00    +0.000 A 
ATOM      9  C   UNL     1      32.629 -10.960  28.494  0.00  0.00    +0.000 A 
ATOM     10  C   UNL     1      32.768 -10.102  27.346  0.00  0.00    +0.000 A 
ATOM     11  C   UNL     1      31.971 -10.337  26.169  0.00  0.00    +0.000 A 
ATOM     12  C   UNL     1      30.619 -14.007  29.585  0.00  0.00    +0.000 A 
BRANCH   7  14
ATOM     13  C   UNL     1      32.999 -13.764  31.413  0.00  0.00    +0.000 C 
ATOM     14  O   UNL     1      32.341 -12.681  30.773  0.00  0.00    +0.000 OA
ENDBRANCH   7  14
ENDBRANCH   3  10
ENDBRANCH   1   5
BRANCH   1  15
ATOM     15  N   UNL     1      30.914  -7.080  27.785  0.00  0.00    +0.000 N 
ATOM     16  H   UNL     1      31.006  -7.045  26.769  0.00  0.00    +0.000 HD
BRANCH  15  17
ATOM     17  N   UNL     1      29.690  -6.704  28.399  0.00  0.00    +0.000 N 
ATOM     18  C   UNL     1      28.488  -7.528  28.209  0.00  0.00    +0.000 C 
ATOM     19  O   UNL     1      27.393  -7.191  28.759  0.00  0.00    +0.000 OA
ATOM     20  H   UNL     1      29.647  -5.862  28.974  0.00  0.00    +0.000 HD
BRANCH  18  21
ATOM     21  C   UNL     1      28.554  -8.783  27.353  0.00  0.00    +0.000 A 
ATOM     22  C   UNL     1      28.430  -8.685  25.921  0.00  0.00    +0.000 A 
ATOM     23  C   UNL     1      28.242  -7.399  25.301  0.00  0.00    +0.000 A 
ATOM     24  C   UNL     1      28.118  -7.301  23.869  0.00  0.00    +0.000 A 
ATOM     25  C   UNL     1      27.930  -6.016  23.249  0.00  0.00    +0.000 A 
ATOM     26  C   UNL     1      28.742 -10.068  27.974  0.00  0.00    +0.000 A 
ATOM     27  C   UNL     1      28.873 -10.171  29.484  0.00  0.00    +0.000 C 
ENDBRANCH  18  21
ENDBRANCH  15  17
ENDBRANCH   1  15
TORSDOF 6
ENDMDL
MODEL 4
REMARK VINA RESULT:    -5.986     30.826     33.598
REMARK INTER + INTRA:          -9.770
REMARK INTER:                  -8.266
REMARK INTRA:                  -1.505
REMARK UNBOUND:                -1.685
REMARK  Name = 
REMARK  8 active torsions:
REMARK  status: ('A' for Active; 'I' for Inactive)
REMARK    1  A    between atoms: C_1  and  O_2
REMARK    2  A    between atoms: O_2  and  C_3
REMARK    3  A    between atoms: C_6  and  C_7
REMARK    4  A    between atoms: N_9  and  C_10
REMARK    5  A    between atoms: C_10  and  N_12
REMARK    6  A    between atoms: N_12  and  N_13
REMARK    7  A    between atoms: C_14  and  C_16
REMARK    8  A    between atoms: C_21  and  C_22
REMARK                            x       y       z     vdW  Elec       q    Type
REMARK                         _______ _______ _______ _____ _____    ______ ____
ROOT
ATOM      1  C   UNL     1      12.175   7.014  28.942  0.00  0.00    +0.000 C 
ATOM      2  S   UNL     1      13.048   7.636  30.157  0.00  0.00    +0.000 S 
ENDROOT
BRANCH   1   5
ATOM      3  C   UNL     1       9.664   6.700  28.658  0.00  0.00    +0.000 C 
ATOM      4  O   UNL     1       8.519   7.180  28.388  0.00  0.00    +0.000 OA
ATOM      5  N   UNL     1      10.851   7.568  28.630  0.00  0.00    +0.000 N 
ATOM      6  H   UNL     1      10.754   8.556  28.393  0.00  0.00    +0.000 HD
BRANCH   3  10
ATOM      7  C   UNL     1       9.796   1.835  27.278  0.00  0.00    +0.000 A 
ATOM      8  C   UNL     1       9.871   2.835  28.311  0.00  0.00    +0.000 A 
ATOM      9  C   UNL     1       9.734   4.229  27.976  0.00  0.00    +0.000 A 
ATOM     10  C   UNL     1       9.809   5.228  29.011  0.00  0.00    +0.000 A 
ATOM     11  C   UNL     1      10.021   4.834  30.380  0.00  0.00    +0.000 A 
ATOM     12  C   UNL     1       9.933   0.441  27.612  0.00  0.00    +0.000 A 
BRANCH   7  14
ATOM     13  C   UNL     1       9.581   1.245  24.899  0.00  0.00    +0.000 C 
ATOM     14  O   UNL     1       9.588   2.224  25.927  0.00  0.00    +0.000 OA
ENDBRANCH   7  14
ENDBRANCH   3  10
ENDBRANCH   1   5
BRANCH   1  15
ATOM     15  N   UNL     1      12.709   5.895  28.152  0.00  0.00    +0.000 N 
ATOM     16  H   UNL     1      12.070   5.259  27.673  0.00  0.00    +0.000 HD
BRANCH  15  17
ATOM     17  N   UNL     1      14.112   5.698  28.055  0.00  0.00    +0.000 N 
ATOM     18  C   UNL     1      14.712   4.439  28.519  0.00  0.00    +0.000 C 
ATOM     19  O   UNL     1      15.967   4.263  28.431  0.00  0.00    +0.000 OA
ATOM     20  H   UNL     1      14.703   6.432  27.663  0.00  0.00    +0.000 HD
BRANCH  18  21
ATOM     21  C   UNL     1      13.830   3.347  29.102  0.00  0.00    +0.000 A 
ATOM     22  C   UNL     1      13.356   2.278  28.260  0.00  0.00    +0.000 A 
ATOM     23  C   UNL     1      13.717   2.246  26.866  0.00  0.00    +0.000 A 
ATOM     24  C   UNL     1      13.243   1.177  26.025  0.00  0.00    +0.000 A 
ATOM     25  C   UNL     1      13.603   1.144  24.631  0.00  0.00    +0.000 A 
ATOM     26  C   UNL     1      13.469   3.380  30.495  0.00  0.00    +0.000 A 
ATOM     27  C   UNL     1      13.969   4.507  31.384  0.00  0.00    +0.000 C 
ENDBRANCH  18  21
ENDBRANCH  15  17
ENDBRANCH   1  15
TORSDOF 6
ENDMDL
MODEL 5
REMARK VINA RESULT:    -5.945     31.803     34.741
REMARK INTER + INTRA:          -9.716
REMARK INTER:                  -9.105
REMARK INTRA:                  -0.611
REMARK UNBOUND:                -1.685
REMARK  Name = 
REMARK  8 active torsions:
REMARK  status: ('A' for Active; 'I' for Inactive)
REMARK    1  A    between atoms: C_1  and  O_2
REMARK    2  A    between atoms: O_2  and  C_3
REMARK    3  A    between atoms: C_6  and  C_7
REMARK    4  A    between atoms: N_9  and  C_10
REMARK    5  A    between atoms: C_10  and  N_12
REMARK    6  A    between atoms: N_12  and  N_13
REMARK    7  A    between atoms: C_14  and  C_16
REMARK    8  A    between atoms: C_21  and  C_22
REMARK                            x       y       z     vdW  Elec       q    Type
REMARK                         _______ _______ _______ _____ _____    ______ ____
ROOT
ATOM      1  C   UNL     1       9.102   4.389  29.079  0.00  0.00    +0.000 C 
ATOM      2  S   UNL     1       9.714   3.233  28.124  0.00  0.00    +0.000 S 
ENDROOT
BRANCH   1   5
ATOM      3  C   UNL     1      10.709   4.797  31.012  0.00  0.00    +0.000 C 
ATOM      4  O   UNL     1      10.955   4.789  32.260  0.00  0.00    +0.000 OA
ATOM      5  N   UNL     1       9.388   4.379  30.521  0.00  0.00    +0.000 N 
ATOM      6  H   UNL     1       8.668   4.081  31.182  0.00  0.00    +0.000 HD
BRANCH   3  10
ATOM      7  C   UNL     1      14.952   3.881  28.417  0.00  0.00    +0.000 A 
ATOM      8  C   UNL     1      13.873   4.771  28.757  0.00  0.00    +0.000 A 
ATOM      9  C   UNL     1      12.859   4.350  29.689  0.00  0.00    +0.000 A 
ATOM     10  C   UNL     1      11.779   5.241  30.029  0.00  0.00    +0.000 A 
ATOM     11  C   UNL     1      11.713   6.552  29.436  0.00  0.00    +0.000 A 
ATOM     12  C   UNL     1      15.967   4.301  27.485  0.00  0.00    +0.000 A 
BRANCH   7  14
ATOM     13  C   UNL     1      16.166   1.776  28.805  0.00  0.00    +0.000 C 
ATOM     14  O   UNL     1      15.017   2.588  29.001  0.00  0.00    +0.000 OA
ENDBRANCH   7  14
ENDBRANCH   3  10
ENDBRANCH   1   5
BRANCH   1  15
ATOM     15  N   UNL     1       8.261   5.449  28.505  0.00  0.00    +0.000 N 
ATOM     16  H   UNL     1       7.420   5.755  28.996  0.00  0.00    +0.000 HD
BRANCH  15  17
ATOM     17  N   UNL     1       8.617   6.047  27.267  0.00  0.00    +0.000 N 
ATOM     18  C   UNL     1       7.704   7.000  26.621  0.00  0.00    +0.000 C 
ATOM     19  O   UNL     1       8.024   7.535  25.514  0.00  0.00    +0.000 OA
ATOM     20  H   UNL     1       9.508   5.815  26.828  0.00  0.00    +0.000 HD
BRANCH  18  21
ATOM     21  C   UNL     1       6.377   7.346  27.277  0.00  0.00    +0.000 A 
ATOM     22  C   UNL     1       6.280   8.492  28.145  0.00  0.00    +0.000 A 
ATOM     23  C   UNL     1       7.441   9.309  28.390  0.00  0.00    +0.000 A 
ATOM     24  C   UNL     1       7.344  10.455  29.258  0.00  0.00    +0.000 A 
ATOM     25  C   UNL     1       8.504  11.272  29.503  0.00  0.00    +0.000 A 
ATOM     26  C   UNL     1       5.218   6.529  27.032  0.00  0.00    +0.000 A 
ATOM     27  C   UNL     1       5.320   5.320  26.116  0.00  0.00    +0.000 C 
ENDBRANCH  18  21
ENDBRANCH  15  17
ENDBRANCH   1  15
TORSDOF 6
ENDMDL
MODEL 6
REMARK VINA RESULT:    -5.899     27.452     29.406
REMARK INTER + INTRA:          -9.654
REMARK INTER:                  -8.078
REMARK INTRA:                  -1.576
REMARK UNBOUND:                -1.685
REMARK  Name = 
REMARK  8 active torsions:
REMARK  status: ('A' for Active; 'I' for Inactive)
REMARK    1  A    between atoms: C_1  and  O_2
REMARK    2  A    between atoms: O_2  and  C_3
REMARK    3  A    between atoms: C_6  and  C_7
REMARK    4  A    between atoms: N_9  and  C_10
REMARK    5  A    between atoms: C_10  and  N_12
REMARK    6  A    between atoms: N_12  and  N_13
REMARK    7  A    between atoms: C_14  and  C_16
REMARK    8  A    between atoms: C_21  and  C_22
REMARK                            x       y       z     vdW  Elec       q    Type
REMARK                         _______ _______ _______ _____ _____    ______ ____
ROOT
ATOM      1  C   UNL     1      31.265  -8.886  26.336  0.00  0.00    +0.000 C 
ATOM      2  S   UNL     1      30.763 -10.380  26.712  0.00  0.00    +0.000 S 
ENDROOT
BRANCH   1   5
ATOM      3  C   UNL     1      31.631  -7.420  28.386  0.00  0.00    +0.000 C 
ATOM      4  O   UNL     1      32.417  -6.797  29.168  0.00  0.00    +0.000 OA
ATOM      5  N   UNL     1      32.173  -8.165  27.240  0.00  0.00    +0.000 N 
ATOM      6  H   UNL     1      33.179  -8.182  27.072  0.00  0.00    +0.000 HD
BRANCH   3  10
ATOM      7  C   UNL     1      27.575  -8.967  30.982  0.00  0.00    +0.000 A 
ATOM      8  C   UNL     1      28.143  -8.170  29.927  0.00  0.00    +0.000 A 
ATOM      9  C   UNL     1      29.564  -8.193  29.691  0.00  0.00    +0.000 A 
ATOM     10  C   UNL     1      30.132  -7.396  28.635  0.00  0.00    +0.000 A 
ATOM     11  C   UNL     1      29.279  -6.574  27.815  0.00  0.00    +0.000 A 
ATOM     12  C   UNL     1      26.155  -8.944  31.219  0.00  0.00    +0.000 A 
BRANCH   7  14
ATOM     13  C   UNL     1      27.944 -10.267  33.039  0.00  0.00    +0.000 C 
ATOM     14  O   UNL     1      28.416  -9.778  31.791  0.00  0.00    +0.000 OA
ENDBRANCH   7  14
ENDBRANCH   3  10
ENDBRANCH   1   5
BRANCH   1  15
ATOM     15  N   UNL     1      30.813  -8.251  25.090  0.00  0.00    +0.000 N 
ATOM     16  H   UNL     1      30.857  -7.236  24.989  0.00  0.00    +0.000 HD
BRANCH  15  17
ATOM     17  N   UNL     1      30.314  -9.049  24.026  0.00  0.00    +0.000 N 
ATOM     18  C   UNL     1      29.025  -8.719  23.401  0.00  0.00    +0.000 C 
ATOM     19  O   UNL     1      28.580  -9.433  22.449  0.00  0.00    +0.000 OA
ATOM     20  H   UNL     1      30.852  -9.850  23.695  0.00  0.00    +0.000 HD
BRANCH  18  21
ATOM     21  C   UNL     1      28.225  -7.524  23.895  0.00  0.00    +0.000 A 
ATOM     22  C   UNL     1      27.348  -7.664  25.029  0.00  0.00    +0.000 A 
ATOM     23  C   UNL     1      27.230  -8.935  25.696  0.00  0.00    +0.000 A 
ATOM     24  C   UNL     1      26.353  -9.075  26.830  0.00  0.00    +0.000 A 
ATOM     25  C   UNL     1      26.234 -10.346  27.496  0.00  0.00    +0.000 A 
ATOM     26  C   UNL     1      28.344  -6.254  23.228  0.00  0.00    +0.000 A 
ATOM     27  C   UNL     1      29.269  -6.106  22.032  0.00  0.00    +0.000 C 
ENDBRANCH  18  21
ENDBRANCH  15  17
ENDBRANCH   1  15
TORSDOF 6
ENDMDL
MODEL 7
REMARK VINA RESULT:    -5.879      2.689      4.787
REMARK INTER + INTRA:          -9.626
REMARK INTER:                  -7.954
REMARK INTRA:                  -1.672
REMARK UNBOUND:                -1.685
REMARK  Name = 
REMARK  8 active torsions:
REMARK  status: ('A' for Active; 'I' for Inactive)
REMARK    1  A    between atoms: C_1  and  O_2
REMARK    2  A    between atoms: O_2  and  C_3
REMARK    3  A    between atoms: C_6  and  C_7
REMARK    4  A    between atoms: N_9  and  C_10
REMARK    5  A    between atoms: C_10  and  N_12
REMARK    6  A    between atoms: N_12  and  N_13
REMARK    7  A    between atoms: C_14  and  C_16
REMARK    8  A    between atoms: C_21  and  C_22
REMARK                            x       y       z     vdW  Elec       q    Type
REMARK                         _______ _______ _______ _____ _____    ______ ____
ROOT
ATOM      1  C   UNL     1      40.695  12.592  42.518  0.00  0.00    +0.000 C 
ATOM      2  S   UNL     1      40.947  14.171  42.779  0.00  0.00    +0.000 S 
ENDROOT
BRANCH   1   5
ATOM      3  C   UNL     1      41.618  10.874  44.155  0.00  0.00    +0.000 C 
ATOM      4  O   UNL     1      42.510  10.026  44.475  0.00  0.00    +0.000 OA
ATOM      5  N   UNL     1      41.726  11.612  42.888  0.00  0.00    +0.000 N 
ATOM      6  H   UNL     1      42.517  11.444  42.265  0.00  0.00    +0.000 HD
BRANCH   3  10
ATOM      7  C   UNL     1      39.353  13.619  47.749  0.00  0.00    +0.000 A 
ATOM      8  C   UNL     1      39.339  12.491  46.855  0.00  0.00    +0.000 A 
ATOM      9  C   UNL     1      40.455  12.254  45.976  0.00  0.00    +0.000 A 
ATOM     10  C   UNL     1      40.441  11.125  45.082  0.00  0.00    +0.000 A 
ATOM     11  C   UNL     1      39.309  10.233  45.066  0.00  0.00    +0.000 A 
ATOM     12  C   UNL     1      38.237  13.857  48.628  0.00  0.00    +0.000 A 
BRANCH   7  14
ATOM     13  C   UNL     1      41.360  14.495  48.870  0.00  0.00    +0.000 C 
ATOM     14  O   UNL     1      40.469  14.499  47.765  0.00  0.00    +0.000 OA
ENDBRANCH   7  14
ENDBRANCH   3  10
ENDBRANCH   1   5
BRANCH   1  15
ATOM     15  N   UNL     1      39.435  12.139  41.912  0.00  0.00    +0.000 N 
ATOM     16  H   UNL     1      39.181  11.151  41.942  0.00  0.00    +0.000 HD
BRANCH  15  17
ATOM     17  N   UNL     1      38.571  13.075  41.284  0.00  0.00    +0.000 N 
ATOM     18  C   UNL     1      37.234  13.329  41.838  0.00  0.00    +0.000 C 
ATOM     19  O   UNL     1      36.462  14.167  41.276  0.00  0.00    +0.000 OA
ATOM     20  H   UNL     1      38.880  13.571  40.448  0.00  0.00    +0.000 HD
BRANCH  18  21
ATOM     21  C   UNL     1      36.775  12.589  43.085  0.00  0.00    +0.000 A 
ATOM     22  C   UNL     1      36.136  11.304  42.965  0.00  0.00    +0.000 A 
ATOM     23  C   UNL     1      35.932  10.720  41.664  0.00  0.00    +0.000 A 
ATOM     24  C   UNL     1      35.293   9.435  41.544  0.00  0.00    +0.000 A 
ATOM     25  C   UNL     1      35.088   8.851  40.244  0.00  0.00    +0.000 A 
ATOM     26  C   UNL     1      36.980  13.173  44.384  0.00  0.00    +0.000 A 
ATOM     27  C   UNL     1      37.655  14.529  44.512  0.00  0.00    +0.000 C 
ENDBRANCH  18  21
ENDBRANCH  15  17
ENDBRANCH   1  15
TORSDOF 6
ENDMDL
MODEL 8
REMARK VINA RESULT:    -5.872     30.282     33.052
REMARK INTER + INTRA:          -9.616
REMARK INTER:                  -8.715
REMARK INTRA:                  -0.901
REMARK UNBOUND:                -1.685
REMARK  Name = 
REMARK  8 active torsions:
REMARK  status: ('A' for Active; 'I' for Inactive)
REMARK    1  A    between atoms: C_1  and  O_2
REMARK    2  A    between atoms: O_2  and  C_3
REMARK    3  A    between atoms: C_6  and  C_7
REMARK    4  A    between atoms: N_9  and  C_10
REMARK    5  A    between atoms: C_10  and  N_12
REMARK    6  A    between atoms: N_12  and  N_13
REMARK    7  A    between atoms: C_14  and  C_16
REMARK    8  A    between atoms: C_21  and  C_22
REMARK                            x       y       z     vdW  Elec       q    Type
REMARK                         _______ _______ _______ _____ _____    ______ ____
ROOT
ATOM      1  C   UNL     1      12.450   7.414  30.215  0.00  0.00    +0.000 C 
ATOM      2  S   UNL     1      13.956   7.651  29.667  0.00  0.00    +0.000 S 
ENDROOT
BRANCH   1   5
ATOM      3  C   UNL     1      12.018   5.227  31.445  0.00  0.00    +0.000 C 
ATOM      4  O   UNL     1      11.828   4.594  32.531  0.00  0.00    +0.000 OA
ATOM      5  N   UNL     1      12.230   6.682  31.469  0.00  0.00    +0.000 N 
ATOM      6  H   UNL     1      12.225   7.183  32.359  0.00  0.00    +0.000 HD
BRANCH   3  10
ATOM      7  C   UNL     1      14.476   2.607  27.885  0.00  0.00    +0.000 A 
ATOM      8  C   UNL     1      13.255   3.190  28.375  0.00  0.00    +0.000 A 
ATOM      9  C   UNL     1      13.248   3.897  29.631  0.00  0.00    +0.000 A 
ATOM     10  C   UNL     1      12.026   4.481  30.121  0.00  0.00    +0.000 A 
ATOM     11  C   UNL     1      10.811   4.358  29.357  0.00  0.00    +0.000 A 
ATOM     12  C   UNL     1      14.484   1.900  26.630  0.00  0.00    +0.000 A 
BRANCH   7  14
ATOM     13  C   UNL     1      16.766   1.856  28.381  0.00  0.00    +0.000 C 
ATOM     14  O   UNL     1      15.674   2.728  28.638  0.00  0.00    +0.000 OA
ENDBRANCH   7  14
ENDBRANCH   3  10
ENDBRANCH   1   5
BRANCH   1  15
ATOM     15  N   UNL     1      11.302   7.932  29.456  0.00  0.00    +0.000 N 
ATOM     16  H   UNL     1      10.443   8.189  29.943  0.00  0.00    +0.000 HD
BRANCH  15  17
ATOM     17  N   UNL     1      11.389   8.075  28.046  0.00  0.00    +0.000 N 
ATOM     18  C   UNL     1      10.787   9.243  27.386  0.00  0.00    +0.000 C 
ATOM     19  O   UNL     1      10.866   9.370  26.124  0.00  0.00    +0.000 OA
ATOM     20  H   UNL     1      11.869   7.366  27.491  0.00  0.00    +0.000 HD
BRANCH  18  21
ATOM     21  C   UNL     1      10.073  10.299  28.214  0.00  0.00    +0.000 A 
ATOM     22  C   UNL     1       8.657  10.191  28.452  0.00  0.00    +0.000 A 
ATOM     23  C   UNL     1       7.917   9.082  27.904  0.00  0.00    +0.000 A 
ATOM     24  C   UNL     1       6.501   8.974  28.142  0.00  0.00    +0.000 A 
ATOM     25  C   UNL     1       5.762   7.867  27.594  0.00  0.00    +0.000 A 
ATOM     26  C   UNL     1      10.813  11.406  28.761  0.00  0.00    +0.000 A 
ATOM     27  C   UNL     1      12.308  11.521  28.511  0.00  0.00    +0.000 C 
ENDBRANCH  18  21
ENDBRANCH  15  17
ENDBRANCH   1  15
TORSDOF 6
ENDMDL
MODEL 9
REMARK VINA RESULT:    -5.867     27.061     28.666
REMARK INTER + INTRA:          -9.610
REMARK INTER:                  -8.661
REMARK INTRA:                  -0.949
REMARK UNBOUND:                -1.685
REMARK  Name = 
REMARK  8 active torsions:
REMARK  status: ('A' for Active; 'I' for Inactive)
REMARK    1  A    between atoms: C_1  and  O_2
REMARK    2  A    between atoms: O_2  and  C_3
REMARK    3  A    between atoms: C_6  and  C_7
REMARK    4  A    between atoms: N_9  and  C_10
REMARK    5  A    between atoms: C_10  and  N_12
REMARK    6  A    between atoms: N_12  and  N_13
REMARK    7  A    between atoms: C_14  and  C_16
REMARK    8  A    between atoms: C_21  and  C_22
REMARK                            x       y       z     vdW  Elec       q    Type
REMARK                         _______ _______ _______ _____ _____    ______ ____
ROOT
ATOM      1  C   UNL     1      27.321  -8.894  31.336  0.00  0.00    +0.000 C 
ATOM      2  S   UNL     1      26.386  -8.689  30.029  0.00  0.00    +0.000 S 
ENDROOT
BRANCH   1   5
ATOM      3  C   UNL     1      26.428  -9.056  33.715  0.00  0.00    +0.000 C 
ATOM      4  O   UNL     1      26.117  -8.499  34.814  0.00  0.00    +0.000 OA
ATOM      5  N   UNL     1      26.960  -8.250  32.607  0.00  0.00    +0.000 N 
ATOM      6  H   UNL     1      27.079  -7.242  32.720  0.00  0.00    +0.000 HD
BRANCH   3  10
ATOM      7  C   UNL     1      28.130 -13.783  34.304  0.00  0.00    +0.000 A 
ATOM      8  C   UNL     1      27.108 -12.880  33.845  0.00  0.00    +0.000 A 
ATOM      9  C   UNL     1      27.275 -11.459  34.006  0.00  0.00    +0.000 A 
ATOM     10  C   UNL     1      26.252 -10.556  33.546  0.00  0.00    +0.000 A 
ATOM     11  C   UNL     1      25.060 -11.075  32.925  0.00  0.00    +0.000 A 
ATOM     12  C   UNL     1      27.963 -15.204  34.144  0.00  0.00    +0.000 A 
BRANCH   7  14
ATOM     13  C   UNL     1      29.387 -13.180  36.332  0.00  0.00    +0.000 C 
ATOM     14  O   UNL     1      29.306 -13.271  34.917  0.00  0.00    +0.000 OA
ENDBRANCH   7  14
ENDBRANCH   3  10
ENDBRANCH   1   5
BRANCH   1  15
ATOM     15  N   UNL     1      28.531  -9.724  31.251  0.00  0.00    +0.000 N 
ATOM     16  H   UNL     1      28.483 -10.653  30.831  0.00  0.00    +0.000 HD
BRANCH  15  17
ATOM     17  N   UNL     1      29.766  -9.234  31.752  0.00  0.00    +0.000 N 
ATOM     18  C   UNL     1      30.922  -9.097  30.854  0.00  0.00    +0.000 C 
ATOM     19  O   UNL     1      32.026  -8.658  31.304  0.00  0.00    +0.000 OA
ATOM     20  H   UNL     1      29.850  -8.977  32.736  0.00  0.00    +0.000 HD
BRANCH  18  21
ATOM     21  C   UNL     1      30.795  -9.479  29.388  0.00  0.00    +0.000 A 
ATOM     22  C   UNL     1      31.215 -10.784  28.946  0.00  0.00    +0.000 A 
ATOM     23  C   UNL     1      31.755 -11.726  29.892  0.00  0.00    +0.000 A 
ATOM     24  C   UNL     1      32.175 -13.031  29.450  0.00  0.00    +0.000 A 
ATOM     25  C   UNL     1      32.716 -13.972  30.395  0.00  0.00    +0.000 A 
ATOM     26  C   UNL     1      30.255  -8.537  28.443  0.00  0.00    +0.000 A 
ATOM     27  C   UNL     1      29.811  -7.160  28.910  0.00  0.00    +0.000 C 
ENDBRANCH  18  21
ENDBRANCH  15  17
ENDBRANCH   1  15
TORSDOF 6
ENDMDL
MODEL 10
REMARK VINA RESULT:    -5.856     27.340     29.590
REMARK INTER + INTRA:          -9.595
REMARK INTER:                  -7.826
REMARK INTRA:                  -1.770
REMARK UNBOUND:                -1.685
REMARK  Name = 
REMARK  8 active torsions:
REMARK  status: ('A' for Active; 'I' for Inactive)
REMARK    1  A    between atoms: C_1  and  O_2
REMARK    2  A    between atoms: O_2  and  C_3
REMARK    3  A    between atoms: C_6  and  C_7
REMARK    4  A    between atoms: N_9  and  C_10
REMARK    5  A    between atoms: C_10  and  N_12
REMARK    6  A    between atoms: N_12  and  N_13
REMARK    7  A    between atoms: C_14  and  C_16
REMARK    8  A    between atoms: C_21  and  C_22
REMARK                            x       y       z     vdW  Elec       q    Type
REMARK                         _______ _______ _______ _____ _____    ______ ____
ROOT
ATOM      1  C   UNL     1      30.167  -7.195  27.884  0.00  0.00    +0.000 C 
ATOM      2  S   UNL     1      28.835  -7.852  28.531  0.00  0.00    +0.000 S 
ENDROOT
BRANCH   1   5
ATOM      3  C   UNL     1      32.474  -7.669  28.852  0.00  0.00    +0.000 C 
ATOM      4  O   UNL     1      33.445  -7.330  29.600  0.00  0.00    +0.000 OA
ATOM      5  N   UNL     1      31.289  -6.804  28.749  0.00  0.00    +0.000 N 
ATOM      6  H   UNL     1      31.246  -5.932  29.278  0.00  0.00    +0.000 HD
BRANCH   3  10
ATOM      7  C   UNL     1      34.134 -10.333  24.886  0.00  0.00    +0.000 A 
ATOM      8  C   UNL     1      33.366 -10.264  26.101  0.00  0.00    +0.000 A 
ATOM      9  C   UNL     1      33.306  -9.034  26.848  0.00  0.00    +0.000 A 
ATOM     10  C   UNL     1      32.538  -8.967  28.064  0.00  0.00    +0.000 A 
ATOM     11  C   UNL     1      31.829 -10.129  28.534  0.00  0.00    +0.000 A 
ATOM     12  C   UNL     1      34.194 -11.562  24.139  0.00  0.00    +0.000 A 
BRANCH   7  14
ATOM     13  C   UNL     1      35.008  -8.975  23.029  0.00  0.00    +0.000 C 
ATOM     14  O   UNL     1      34.834  -9.186  24.423  0.00  0.00    +0.000 OA
ENDBRANCH   7  14
ENDBRANCH   3  10
ENDBRANCH   1   5
BRANCH   1  15
ATOM     15  N   UNL     1      30.253  -6.989  26.431  0.00  0.00    +0.000 N 
ATOM     16  H   UNL     1      31.158  -6.809  25.994  0.00  0.00    +0.000 HD
BRANCH  15  17
ATOM     17  N   UNL     1      29.079  -7.040  25.635  0.00  0.00    +0.000 N 
ATOM     18  C   UNL     1      29.000  -7.968  24.498  0.00  0.00    +0.000 C 
ATOM     19  O   UNL     1      27.949  -8.014  23.786  0.00  0.00    +0.000 OA
ATOM     20  H   UNL     1      28.289  -6.432  25.853  0.00  0.00    +0.000 HD
BRANCH  18  21
ATOM     21  C   UNL     1      30.177  -8.875  24.175  0.00  0.00    +0.000 A 
ATOM     22  C   UNL     1      31.270  -8.379  23.379  0.00  0.00    +0.000 A 
ATOM     23  C   UNL     1      31.248  -7.025  22.889  0.00  0.00    +0.000 A 
ATOM     24  C   UNL     1      32.341  -6.529  22.093  0.00  0.00    +0.000 A 
ATOM     25  C   UNL     1      32.319  -5.176  21.603  0.00  0.00    +0.000 A 
ATOM     26  C   UNL     1      30.198 -10.228  24.665  0.00  0.00    +0.000 A 
ATOM     27  C   UNL     1      29.046 -10.752  25.505  0.00  0.00    +0.000 C 
ENDBRANCH  18  21
ENDBRANCH  15  17
ENDBRANCH   1  15
TORSDOF 6
ENDMDL
