REMARK  Name = 
REMARK  7 active torsions:
REMARK  status: ('A' for Active; 'I' for Inactive)
REMARK    1  A    between atoms: C_1  and  O_2
REMARK    2  A    between atoms: O_2  and  C_3
REMARK    3  A    between atoms: C_6  and  C_7
REMARK    4  A    between atoms: C_9  and  C_10
REMARK    5  A    between atoms: C_19  and  O_20
REMARK    6  A    between atoms: C_26  and  O_27
REMARK    7  A    between atoms: O_27  and  C_28
REMARK                            x       y       z     vdW  Elec       q    Type
REMARK                         _______ _______ _______ _____ _____    ______ ____
ROOT
ATOM      1  C   UNL     1      -1.741  -5.917  -0.716  0.00  0.00    +0.000 A 
ATOM      2  C   UNL     1      -2.089  -5.392   0.579  0.00  0.00    +0.000 A 
ATOM      3  C   UNL     1      -1.609  -4.096   0.983  0.00  0.00    +0.000 A 
ATOM      4  C   UNL     1      -0.781  -3.325   0.092  0.00  0.00    +0.000 A 
ATOM      5  C   UNL     1      -0.301  -2.028   0.496  0.00  0.00    +0.000 A 
ATOM      6  N   UNL     1      -2.206  -7.171  -1.106  0.00  0.00    +0.000 NA
ATOM      7  S   UNL     1       0.685  -1.110  -0.566  0.00  0.00    +0.000 S 
ATOM      8  C   UNL     1       1.257   0.434  -0.085  0.00  0.00    +0.000 A 
ATOM      9  C   UNL     1       2.085   1.204  -0.976  0.00  0.00    +0.000 A 
ATOM     10  C   UNL     1       2.565   2.501  -0.572  0.00  0.00    +0.000 A 
ATOM     11  C   UNL     1       2.217   3.026   0.723  0.00  0.00    +0.000 A 
ATOM     12  O   UNL     1       2.640   4.170   1.079  0.00  0.00    +0.000 OA
ATOM     13  N   UNL     1       1.416   2.281   1.585  0.00  0.00    +0.000 N 
ATOM     14  C   UNL     1      -0.433  -3.850  -1.203  0.00  0.00    +0.000 A 
ATOM     15  H   UNL     1       1.170   2.653   2.502  0.00  0.00    +0.000 HD
ENDROOT
BRANCH   1  19
ATOM     16  C   UNL     1       0.921  -1.740  -1.740  0.00  0.00    +0.000 A 
ATOM     17  C   UNL     1       0.441  -3.036  -2.144  0.00  0.00    +0.000 A 
ATOM     18  C   UNL     1      -0.387  -3.807  -1.253  0.00  0.00    +0.000 A 
ATOM     19  C   UNL     1      -0.867  -5.104  -1.656  0.00  0.00    +0.000 A 
ATOM     20  C   UNL     1      -0.519  -5.629  -2.951  0.00  0.00    +0.000 A 
ATOM     21  C   UNL     1       1.749  -0.969  -2.631  0.00  0.00    +0.000 A 
BRANCH  16  23
ATOM     22  C   UNL     1       1.051   0.056  -0.065  0.00  0.00    +0.000 C 
ATOM     23  O   UNL     1       0.578  -1.222  -0.463  0.00  0.00    +0.000 OA
ENDBRANCH  16  23
BRANCH  20  24
ATOM     24  O   UNL     1      -0.993  -6.908  -3.349  0.00  0.00    +0.000 OA
ATOM     25  C   UNL     1      -0.650  -7.426  -4.626  0.00  0.00    +0.000 C 
ENDBRANCH  20  24
ENDBRANCH   1  19
BRANCH   3  26
ATOM     26  C   UNL     1      -1.976  -3.541   2.350  0.00  0.00    +0.000 C 
ATOM     27  F   UNL     1      -0.868  -3.320   3.051  0.00  0.00    +0.000 F 
ATOM     28  F   UNL     1      -2.641  -2.399   2.201  0.00  0.00    +0.000 F 
ATOM     29  F   UNL     1      -2.741  -4.418   2.993  0.00  0.00    +0.000 F 
ENDBRANCH   3  26
BRANCH   9  30
ATOM     30  O   UNL     1       2.428   0.686  -2.253  0.00  0.00    +0.000 OA
ATOM     31  H   UNL     1       2.094  -0.214  -2.533  0.00  0.00    +0.000 HD
ENDBRANCH   9  30
TORSDOF 5
