REMARK  Name = 
REMARK  7 active torsions:
REMARK  status: ('A' for Active; 'I' for Inactive)
REMARK    1  A    between atoms: C_1  and  C_2
REMARK    2  A    between atoms: C_4  and  C_5
REMARK    3  A    between atoms: C_12  and  C_13
REMARK    4  A    between atoms: N_15  and  C_16
REMARK    5  A    between atoms: C_16  and  C_17
REMARK    6  A    between atoms: C_17  and  C_18
REMARK    7  A    between atoms: C_19  and  C_20
REMARK                            x       y       z     vdW  Elec       q    Type
REMARK                         _______ _______ _______ _____ _____    ______ ____
ROOT
ATOM      1  C   UNL     1       1.963   4.870   1.075  0.00  0.00    +0.000 C 
ATOM      2  O   UNL     1       2.386   6.068   1.072  0.00  0.00    +0.000 OA
ATOM      3  N   UNL     1       1.117   4.392   2.178  0.00  0.00    +0.000 N 
ATOM      4  H   UNL     1       0.871   5.022   2.942  0.00  0.00    +0.000 HD
ENDROOT
BRANCH   1  16
ATOM      5  C   UNL     1       0.918  -0.039  -0.041  0.00  0.00    +0.000 C 
ATOM      6  C   UNL     1       0.411  -1.472  -0.038  0.00  0.00    +0.000 A 
ATOM      7  C   UNL     1       0.759  -2.361  -1.116  0.00  0.00    +0.000 A 
ATOM      8  C   UNL     1       1.587  -1.893  -2.197  0.00  0.00    +0.000 A 
ATOM      9  C   UNL     1       1.954  -2.831  -3.335  0.00  0.00    +0.000 C 
ATOM     10  N   UNL     1       2.051  -0.580  -2.200  0.00  0.00    +0.000 NA
ATOM     11  C   UNL     1       2.852  -0.126  -3.246  0.00  0.00    +0.000 A 
ATOM     12  N   UNL     1       3.342   1.260  -3.249  0.00  0.00    +0.000 N 
ATOM     13  C   UNL     1       2.987   2.167  -2.149  0.00  0.00    +0.000 A 
ATOM     14  N   UNL     1       2.186   1.714  -1.103  0.00  0.00    +0.000 NA
ATOM     15  C   UNL     1       1.850   2.574  -0.060  0.00  0.00    +0.000 A 
ATOM     16  C   UNL     1       2.330   3.932  -0.063  0.00  0.00    +0.000 A 
ATOM     17  C   UNL     1       3.158   4.400  -1.144  0.00  0.00    +0.000 A 
ATOM     18  N   UNL     1       3.451   3.480  -2.151  0.00  0.00    +0.000 NA
ATOM     19  C   UNL     1      -0.417  -1.941   1.043  0.00  0.00    +0.000 A 
ATOM     20  H   UNL     1       3.928   1.592  -4.015  0.00  0.00    +0.000 HD
ENDBRANCH   1  16
BRANCH   3  21
ATOM     21  C   UNL     1       0.627   3.006   2.181  0.00  0.00    +0.000 C 
BRANCH  21  22
ATOM     22  C   UNL     1       1.134   2.292   3.424  0.00  0.00    +0.000 C 
BRANCH  22  23
ATOM     23  C   UNL     1       0.627   3.011   4.664  0.00  0.00    +0.000 A 
ATOM     24  C   UNL     1       0.975   4.391   4.888  0.00  0.00    +0.000 A 
ATOM     25  C   UNL     1       1.849   5.127   3.886  0.00  0.00    +0.000 C 
ATOM     26  N   UNL     1       0.511   5.050   6.024  0.00  0.00    +0.000 N 
ATOM     27  C   UNL     1      -0.290   4.375   6.942  0.00  0.00    +0.000 A 
ATOM     28  C   UNL     1      -0.638   2.996   6.718  0.00  0.00    +0.000 A 
ATOM     29 CL   UNL     1      -0.044   2.153   5.266  0.00  0.00    +0.000 Cl
ATOM     30  C   UNL     1      -1.466   2.298   7.667  0.00  0.00    +0.000 A 
ATOM     31  C   UNL     1      -1.946   2.979   8.842  0.00  0.00    +0.000 A 
ATOM     32 CL   UNL     1      -2.969   2.117  10.015  0.00  0.00    +0.000 Cl
ATOM     33  C   UNL     1      -1.598   4.359   9.066  0.00  0.00    +0.000 A 
ATOM     34  C   UNL     1      -0.770   5.056   8.117  0.00  0.00    +0.000 A 
ATOM     35  H   UNL     1       0.757   6.027   6.183  0.00  0.00    +0.000 HD
ENDBRANCH  22  23
ENDBRANCH  21  22
ENDBRANCH   3  21
TORSDOF 4
