REMARK  Name = 
REMARK  9 active torsions:
REMARK  status: ('A' for Active; 'I' for Inactive)
REMARK    1  A    between atoms: C_1  and  O_2
REMARK    2  A    between atoms: O_2  and  C_3
REMARK    3  A    between atoms: C_6  and  C_7
REMARK    4  A    between atoms: C_12  and  C_13
REMARK    5  A    between atoms: C_16  and  O_17
REMARK    6  A    between atoms: O_17  and  C_18
REMARK    7  A    between atoms: C_23  and  C_24
REMARK    8  A    between atoms: C_25  and  C_26
REMARK    9  A    between atoms: C_26  and  O_27
REMARK                            x       y       z     vdW  Elec       q    Type
REMARK                         _______ _______ _______ _____ _____    ______ ____
ROOT
ATOM      1  C   UNL     1      -1.777   5.704   1.929  0.00  0.00    +0.000 A 
ATOM      2  O   UNL     1      -2.102   5.465   0.646  0.00  0.00    +0.000 OA
ATOM      3  C   UNL     1      -2.876   6.338  -0.026  0.00  0.00    +0.000 A 
ATOM      4  C   UNL     1      -3.224   6.082  -1.400  0.00  0.00    +0.000 A 
ATOM      5  C   UNL     1      -2.744   4.892  -2.055  0.00  0.00    +0.000 A 
ATOM      6  C   UNL     1      -3.092   4.636  -3.429  0.00  0.00    +0.000 A 
ATOM      7  C   UNL     1      -3.920   5.570  -4.148  0.00  0.00    +0.000 A 
ATOM      8  C   UNL     1      -3.356   7.527   0.629  0.00  0.00    +0.000 A 
ATOM      9  C   UNL     1      -2.257   6.894   2.584  0.00  0.00    +0.000 A 
ENDROOT
BRANCH   1  13
ATOM     10  C   UNL     1       0.885   1.407   2.097  0.00  0.00    +0.000 A 
ATOM     11  C   UNL     1       0.405   2.596   2.752  0.00  0.00    +0.000 A 
ATOM     12  C   UNL     1      -0.423   3.530   2.033  0.00  0.00    +0.000 A 
ATOM     13  C   UNL     1      -0.903   4.719   2.688  0.00  0.00    +0.000 A 
ATOM     14  C   UNL     1      -0.555   4.975   4.062  0.00  0.00    +0.000 A 
ATOM     15  C   UNL     1       1.713   0.473   2.816  0.00  0.00    +0.000 A 
BRANCH  10  17
ATOM     16  C   UNL     1       1.015  -0.018   0.097  0.00  0.00    +0.000 C 
ATOM     17  O   UNL     1       0.542   1.154   0.743  0.00  0.00    +0.000 OA
ENDBRANCH  10  17
ENDBRANCH   1  13
BRANCH   6  18
ATOM     18  C   UNL     1      -2.585   3.381  -4.120  0.00  0.00    +0.000 A 
ATOM     19  C   UNL     1      -1.757   2.447  -3.401  0.00  0.00    +0.000 A 
ATOM     20  C   UNL     1      -1.409   2.703  -2.027  0.00  0.00    +0.000 A 
ATOM     21  C   UNL     1      -0.581   1.770  -1.308  0.00  0.00    +0.000 A 
ATOM     22  N   UNL     1      -0.117   0.619  -1.941  0.00  0.00    +0.000 NA
ATOM     23  C   UNL     1      -2.933   3.125  -5.494  0.00  0.00    +0.000 A 
BRANCH  21  24
ATOM     24  O   UNL     1      -0.238   2.022   0.047  0.00  0.00    +0.000 OA
ATOM     25  C   UNL     1      -0.711   3.195   0.692  0.00  0.00    +0.000 C 
ENDBRANCH  21  24
ENDBRANCH   6  18
BRANCH   9  26
ATOM     26  C   UNL     1      -1.890   7.164   4.034  0.00  0.00    +0.000 C 
ATOM     27  C   UNL     1      -1.575   7.396   5.278  0.00  0.00    +0.000 C 
BRANCH  27  28
ATOM     28  C   UNL     1      -1.208   7.666   6.728  0.00  0.00    +0.000 C 
ATOM     29  C   UNL     1      -0.176   6.648   7.187  0.00  0.00    +0.000 C 
ATOM     30  C   UNL     1      -0.755   5.248   7.064  0.00  0.00    +0.000 C 
ATOM     31  C   UNL     1      -1.122   4.978   5.614  0.00  0.00    +0.000 C 
ATOM     32  C   UNL     1       0.121   5.091   4.747  0.00  0.00    +0.000 C 
ATOM     33  C   UNL     1      -0.629   9.066   6.852  0.00  0.00    +0.000 C 
BRANCH  28  34
ATOM     34  O   UNL     1      -2.369   7.561   7.538  0.00  0.00    +0.000 OA
ATOM     35  H   UNL     1      -3.048   8.230   7.236  0.00  0.00    +0.000 HD
ENDBRANCH  28  34
ENDBRANCH  27  28
ENDBRANCH   9  26
TORSDOF 7
