REMARK  Name = 
REMARK  11 active torsions:
REMARK  status: ('A' for Active; 'I' for Inactive)
REMARK    1  A    between atoms: C_1  and  O_2
REMARK    2  A    between atoms: O_2  and  C_3
REMARK    3  A    between atoms: C_7  and  C_8
REMARK    4  A    between atoms: C_7  and  C_13
REMARK    5  A    between atoms: C_8  and  C_9
REMARK    6  A    between atoms: C_10  and  C_11
REMARK    7  A    between atoms: C_10  and  C_12
REMARK    8  A    between atoms: C_13  and  C_14
REMARK    9  A    between atoms: C_15  and  C_16
REMARK   10  A    between atoms: C_15  and  C_17
REMARK   11  A    between atoms: C_23  and  C_24
REMARK                            x       y       z     vdW  Elec       q    Type
REMARK                         _______ _______ _______ _____ _____    ______ ____
ROOT
ATOM      1  C   UNL     1       0.922   1.496   1.960  0.00  0.00    +0.000 C 
ATOM      2  C   UNL     1       0.469   2.658   2.502  0.00  0.00    +0.000 C 
ATOM      3  C   UNL     1      -0.405   3.590   1.679  0.00  0.00    +0.000 C 
ATOM      4  O   UNL     1      -0.829   4.676   2.185  0.00  0.00    +0.000 OA
ATOM      5  C   UNL     1      -0.773   3.224   0.250  0.00  0.00    +0.000 C 
ATOM      6  C   UNL     1      -1.646   4.316  -0.345  0.00  0.00    +0.000 C 
ATOM      7  C   UNL     1      -4.342   7.027   0.628  0.00  0.00    +0.000 C 
ATOM      8  C   UNL     1      -3.836   5.729   0.023  0.00  0.00    +0.000 C 
ATOM      9  O   UNL     1      -3.105   4.949   0.711  0.00  0.00    +0.000 OA
ATOM     10  C   UNL     1      -4.203   5.362  -1.406  0.00  0.00    +0.000 C 
ATOM     11  C   UNL     1      -2.936   5.219  -2.234  0.00  0.00    +0.000 C 
ATOM     12  O   UNL     1      -2.120   4.199  -1.678  0.00  0.00    +0.000 OA
ENDROOT
BRANCH  11  13
ATOM     13  C   UNL     1      -2.176   6.536  -2.228  0.00  0.00    +0.000 A 
ATOM     14  C   UNL     1      -1.717   7.096  -0.984  0.00  0.00    +0.000 A 
ATOM     15  C   UNL     1      -1.978   6.410   0.255  0.00  0.00    +0.000 A 
ATOM     16  C   UNL     1      -1.519   6.971   1.500  0.00  0.00    +0.000 A 
ATOM     17  C   UNL     1      -1.780   6.285   2.739  0.00  0.00    +0.000 A 
ATOM     18  C   UNL     1      -1.915   7.222  -3.467  0.00  0.00    +0.000 A 
ENDBRANCH  11  13
BRANCH   1  20
ATOM     19  C   UNL     1       1.052  -0.060   0.060  0.00  0.00    +0.000 C 
ATOM     20  O   UNL     1       0.579   1.153   0.626  0.00  0.00    +0.000 OA
ENDBRANCH   1  20
BRANCH   5  21
ATOM     21  C   UNL     1       0.494   3.081  -0.578  0.00  0.00    +0.000 C 
BRANCH  21  22
ATOM     22  C   UNL     1       1.368   1.989   0.017  0.00  0.00    +0.000 C 
ATOM     23  C   UNL     1       1.697   0.899  -0.728  0.00  0.00    +0.000 C 
ATOM     24  C   UNL     1       2.571  -0.193  -0.134  0.00  0.00    +0.000 C 
ATOM     25  C   UNL     1       1.190   0.774  -2.156  0.00  0.00    +0.000 C 
ENDBRANCH  21  22
ENDBRANCH   5  21
BRANCH   5  26
ATOM     26  C   UNL     1      -1.533   1.907   0.244  0.00  0.00    +0.000 C 
BRANCH  26  27
ATOM     27  C   UNL     1      -2.799   2.050   1.072  0.00  0.00    +0.000 C 
ATOM     28  C   UNL     1      -4.015   1.851   0.495  0.00  0.00    +0.000 C 
ATOM     29  C   UNL     1      -5.282   1.994   1.323  0.00  0.00    +0.000 C 
ATOM     30  C   UNL     1      -4.107   1.487  -0.977  0.00  0.00    +0.000 C 
ENDBRANCH  26  27
ENDBRANCH   5  26
TORSDOF 6
