REMARK  Name = 
REMARK  8 active torsions:
REMARK  status: ('A' for Active; 'I' for Inactive)
REMARK    1  A    between atoms: C_1  and  O_2
REMARK    2  A    between atoms: O_2  and  C_3
REMARK    3  A    between atoms: C_6  and  C_7
REMARK    4  A    between atoms: C_10  and  C_12
REMARK    5  A    between atoms: C_12  and  O_13
REMARK    6  A    between atoms: C_12  and  C_14
REMARK    7  A    between atoms: C_20  and  O_21
REMARK    8  A    between atoms: C_20  and  C_22
REMARK                            x       y       z     vdW  Elec       q    Type
REMARK                         _______ _______ _______ _____ _____    ______ ____
ROOT
ATOM      1  C   UNL     1      -1.724   5.868  -1.552  0.00  0.00    +0.000 C 
ATOM      2  N   UNL     1      -2.042   4.989  -2.477  0.00  0.00    +0.000 NA
ATOM      3  N   UNL     1      -2.859   5.375  -3.573  0.00  0.00    +0.000 N 
ATOM      4  C   UNL     1      -3.349   6.758  -3.673  0.00  0.00    +0.000 C 
ATOM      5  O   UNL     1      -4.079   7.104  -4.653  0.00  0.00    +0.000 OA
ATOM      6  C   UNL     1      -3.214   4.393  -4.608  0.00  0.00    +0.000 C 
ATOM      7  C   UNL     1      -2.231   7.297  -1.655  0.00  0.00    +0.000 C 
ENDROOT
BRANCH   1  11
ATOM      8  C   UNL     1       0.938   2.353   0.928  0.00  0.00    +0.000 A 
ATOM      9  C   UNL     1       0.458   3.707   0.830  0.00  0.00    +0.000 A 
ATOM     10  C   UNL     1      -0.370   4.100  -0.281  0.00  0.00    +0.000 A 
ATOM     11  C   UNL     1      -0.850   5.454  -0.379  0.00  0.00    +0.000 A 
ATOM     12  C   UNL     1      -0.503   6.416   0.635  0.00  0.00    +0.000 A 
ATOM     13  C   UNL     1       1.766   1.961   2.039  0.00  0.00    +0.000 A 
BRANCH   8  15
ATOM     14  C   UNL     1       1.068   0.069   0.025  0.00  0.00    +0.000 C 
ATOM     15  O   UNL     1       0.595   1.404  -0.072  0.00  0.00    +0.000 OA
ENDBRANCH   8  15
ENDBRANCH   1  11
BRANCH   6  16
ATOM     16  C   UNL     1      -4.088   5.058  -5.659  0.00  0.00    +0.000 C 
ATOM     17  F   UNL     1      -5.196   5.520  -5.086  0.00  0.00    +0.000 F 
ATOM     18  F   UNL     1      -3.423   6.067  -6.215  0.00  0.00    +0.000 F 
ATOM     19  F   UNL     1      -4.409   4.170  -6.595  0.00  0.00    +0.000 F 
ENDBRANCH   6  16
BRANCH   6  20
ATOM     20  O   UNL     1      -3.924   3.316  -4.014  0.00  0.00    +0.000 OA
ATOM     21  H   UNL     1      -3.349   2.879  -3.323  0.00  0.00    +0.000 HD
ENDBRANCH   6  20
BRANCH   4  22
ATOM     22  C   UNL     1      -2.981   7.773  -2.603  0.00  0.00    +0.000 C 
BRANCH  22  23
ATOM     23  C   UNL     1      -1.470   7.923  -2.544  0.00  0.00    +0.000 A 
ATOM     24  C   UNL     1      -0.645   6.782  -2.239  0.00  0.00    +0.000 A 
ATOM     25  C   UNL     1      -1.252   5.500  -1.990  0.00  0.00    +0.000 A 
ATOM     26  C   UNL     1      -0.427   4.360  -1.685  0.00  0.00    +0.000 A 
ATOM     27  C   UNL     1      -1.034   3.078  -1.436  0.00  0.00    +0.000 A 
ATOM     28  C   UNL     1      -0.863   9.205  -2.793  0.00  0.00    +0.000 A 
ENDBRANCH  22  23
BRANCH  22  29
ATOM     29  O   UNL     1      -3.463   7.329  -1.343  0.00  0.00    +0.000 OA
ATOM     30  H   UNL     1      -4.457   7.230  -1.382  0.00  0.00    +0.000 HD
ENDBRANCH  22  29
ENDBRANCH   4  22
TORSDOF 7
