REMARK  Name = 
REMARK  8 active torsions:
REMARK  status: ('A' for Active; 'I' for Inactive)
REMARK    1  A    between atoms: C_1  and  C_2
REMARK    2  A    between atoms: C_5  and  C_6
REMARK    3  A    between atoms: C_6  and  C_8
REMARK    4  A    between atoms: C_8  and  O_9
REMARK    5  A    between atoms: O_9  and  C_10
REMARK    6  A    between atoms: C_10  and  C_12
REMARK    7  A    between atoms: C_18  and  O_19
REMARK    8  A    between atoms: C_21  and  N_22
REMARK                            x       y       z     vdW  Elec       q    Type
REMARK                         _______ _______ _______ _____ _____    ______ ____
ROOT
ATOM      1  C   UNL     1       3.329  -2.388   3.675  0.00  0.00    +0.000 C 
ENDROOT
BRANCH   1   2
ATOM      2  C   UNL     1       2.822  -1.351   4.664  0.00  0.00    +0.000 C 
ATOM      3  O   UNL     1       3.129  -1.442   5.893  0.00  0.00    +0.000 OA
BRANCH   2   8
ATOM      4  C   UNL     1       0.931   0.050  -0.052  0.00  0.00    +0.000 C 
ATOM      5  C   UNL     1       0.424   1.088   0.936  0.00  0.00    +0.000 A 
ATOM      6  C   UNL     1       0.772   0.985   2.330  0.00  0.00    +0.000 A 
ATOM      7  C   UNL     1       1.600  -0.101   2.787  0.00  0.00    +0.000 A 
ATOM      8  C   UNL     1       1.948  -0.204   4.181  0.00  0.00    +0.000 A 
ATOM      9  C   UNL     1       1.468   0.779   5.118  0.00  0.00    +0.000 A 
ATOM     10  C   UNL     1      -0.404   2.174   0.479  0.00  0.00    +0.000 A 
BRANCH  10  11
ATOM     11  N   UNL     1      -0.759   2.279  -0.943  0.00  0.00    +0.000 N 
ATOM     12  O   UNL     1      -0.350   1.442  -1.741  0.00  0.00    +0.000 OA
ATOM     13  O   UNL     1      -1.547   3.312  -1.378  0.00  0.00    +0.000 OA
ENDBRANCH  10  11
ENDBRANCH   2   8
ENDBRANCH   1   2
BRANCH   1  14
ATOM     14  O   UNL     1       2.224  -3.035   3.059  0.00  0.00    +0.000 OA
BRANCH  14  15
ATOM     15  C   UNL     1       1.285  -3.746   3.853  0.00  0.00    +0.000 C 
ATOM     16  O   UNL     1       1.434  -3.804   5.113  0.00  0.00    +0.000 OA
BRANCH  15  17
ATOM     17  C   UNL     1       0.103  -4.438   3.194  0.00  0.00    +0.000 A 
ATOM     18  C   UNL     1      -0.849  -5.159   3.998  0.00  0.00    +0.000 A 
ATOM     19  C   UNL     1      -0.681  -5.226   5.427  0.00  0.00    +0.000 A 
ATOM     20 CL   UNL     1      -1.857  -6.117   6.421  0.00  0.00    +0.000 Cl
ATOM     21  C   UNL     1       0.439  -4.570   6.051  0.00  0.00    +0.000 A 
ATOM     22  C   UNL     1       1.391  -3.849   5.247  0.00  0.00    +0.000 A 
ATOM     23  C   UNL     1      -0.065  -4.372   1.765  0.00  0.00    +0.000 A 
BRANCH  23  24
ATOM     24  O   UNL     1       0.874  -3.660   0.972  0.00  0.00    +0.000 OA
ATOM     25  H   UNL     1       0.757  -3.614  -0.021  0.00  0.00    +0.000 HD
ENDBRANCH  23  24
ENDBRANCH  15  17
ENDBRANCH  14  15
ENDBRANCH   1  14
TORSDOF 7
