REMARK  Name = 
REMARK  12 active torsions:
REMARK  status: ('A' for Active; 'I' for Inactive)
REMARK    1  A    between atoms: C_1  and  C_2
REMARK    2  A    between atoms: C_2  and  O_3
REMARK    3  A    between atoms: O_3  and  C_4
REMARK    4  A    between atoms: C_4  and  C_6
REMARK    5  A    between atoms: C_9  and  N_10
REMARK    6  A    between atoms: C_11  and  C_12
REMARK    7  A    between atoms: C_12  and  C_14
REMARK    8  A    between atoms: C_16  and  C_17
REMARK    9  A    between atoms: C_19  and  S_20
REMARK   10  A    between atoms: S_20  and  C_21
REMARK   11  A    between atoms: C_23  and  C_24
REMARK   12  A    between atoms: C_28  and  C_29
REMARK                            x       y       z     vdW  Elec       q    Type
REMARK                         _______ _______ _______ _____ _____    ______ ____
ROOT
ATOM      1  C   UNL     1       2.886   1.581   3.670  0.00  0.00    +0.000 A 
ATOM      2  C   UNL     1       4.302   1.752   3.871  0.00  0.00    +0.000 A 
ATOM      3  C   UNL     1       5.238   1.043   3.037  0.00  0.00    +0.000 A 
ATOM      4  C   UNL     1       4.758   0.163   2.003  0.00  0.00    +0.000 A 
ATOM      5  C   UNL     1       5.694  -0.547   1.169  0.00  0.00    +0.000 A 
ATOM      6  S   UNL     1       5.122  -1.595  -0.062  0.00  0.00    +0.000 S 
ATOM      7  C   UNL     1       6.654   1.213   3.238  0.00  0.00    +0.000 A 
ATOM      8  N   UNL     1       7.118   2.064   4.238  0.00  0.00    +0.000 NA
ATOM      9  C   UNL     1       1.950   2.291   4.504  0.00  0.00    +0.000 A 
ATOM     10  C   UNL     1       0.456   2.111   4.293  0.00  0.00    +0.000 C 
ENDROOT
BRANCH   4  11
ATOM     11  N   UNL     1       3.313  -0.011   1.798  0.00  0.00    +0.000 N 
ATOM     12  H   UNL     1       2.973  -0.635   1.066  0.00  0.00    +0.000 HD
ATOM     13  H   UNL     1       2.650   0.491   2.389  0.00  0.00    +0.000 HD
ENDBRANCH   4  11
BRANCH   1  14
ATOM     14  C   UNL     1       2.379   0.653   2.579  0.00  0.00    +0.000 C 
ATOM     15  O   UNL     1       3.205   0.027   1.843  0.00  0.00    +0.000 OA
BRANCH  14  16
ATOM     16  O   UNL     1       0.983   0.485   2.381  0.00  0.00    +0.000 OA
BRANCH  16  18
ATOM     17  C   UNL     1       1.017   0.098   0.012  0.00  0.00    +0.000 C 
ATOM     18  C   UNL     1       0.510  -0.383   1.362  0.00  0.00    +0.000 C 
ENDBRANCH  16  18
ENDBRANCH  14  16
ENDBRANCH   1  14
BRANCH   5  19
ATOM     19  C   UNL     1       7.188  -0.367   1.381  0.00  0.00    +0.000 C 
ATOM     20  O   UNL     1       8.014  -0.993   0.645  0.00  0.00    +0.000 OA
BRANCH  19  21
ATOM     21  C   UNL     1       7.695   0.562   2.472  0.00  0.00    +0.000 A 
ATOM     22  C   UNL     1       9.111   0.732   2.673  0.00  0.00    +0.000 A 
ATOM     23  C   UNL     1      10.047   0.023   1.839  0.00  0.00    +0.000 A 
ATOM     24  C   UNL     1       9.567  -0.857   0.805  0.00  0.00    +0.000 A 
ATOM     25  N   UNL     1      10.472  -1.543  -0.001  0.00  0.00    +0.000 NA
ATOM     26  C   UNL     1       6.759   1.271   3.306  0.00  0.00    +0.000 A 
ATOM     27  C   UNL     1       5.265   1.091   3.094  0.00  0.00    +0.000 C 
BRANCH  23  28
ATOM     28  C   UNL     1      11.541   0.203   2.051  0.00  0.00    +0.000 C 
ATOM     29  N   UNL     1      12.781   0.352   2.226  0.00  0.00    +0.000 NA
ENDBRANCH  23  28
BRANCH  24  30
ATOM     30  S   UNL     1       7.787  -1.071   0.553  0.00  0.00    +0.000 S 
ATOM     31  C   UNL     1       6.882  -0.055   1.747  0.00  0.00    +0.000 C 
ENDBRANCH  24  30
ENDBRANCH  19  21
ENDBRANCH   5  19
TORSDOF 8
