REMARK  Name = 
REMARK  7 active torsions:
REMARK  status: ('A' for Active; 'I' for Inactive)
REMARK    1  A    between atoms: C_1  and  C_2
REMARK    2  A    between atoms: C_2  and  C_3
REMARK    3  A    between atoms: C_4  and  C_5
REMARK    4  A    between atoms: C_5  and  C_6
REMARK    5  A    between atoms: C_13  and  C_14
REMARK    6  A    between atoms: C_13  and  C_15
REMARK    7  A    between atoms: C_19  and  C_20
REMARK                            x       y       z     vdW  Elec       q    Type
REMARK                         _______ _______ _______ _____ _____    ______ ____
ROOT
ATOM      1  C   UNL     1       2.935   1.278  -3.165  0.00  0.00    +0.000 A 
ATOM      2  C   UNL     1       3.829   0.202  -2.824  0.00  0.00    +0.000 A 
ATOM      3  C   UNL     1       3.523  -0.664  -1.714  0.00  0.00    +0.000 A 
ATOM      4  C   UNL     1       2.323  -0.453  -0.946  0.00  0.00    +0.000 A 
ATOM      5  C   UNL     1       1.429   0.623  -1.288  0.00  0.00    +0.000 A 
ATOM      6  C   UNL     1       4.616   3.730  -2.983  0.00  0.00    +0.000 A 
ATOM      7  O   UNL     1       4.451   2.899  -4.122  0.00  0.00    +0.000 OA
ATOM      8  C   UNL     1       3.209   2.252  -4.355  0.00  0.00    +0.000 C 
ATOM      9  C   UNL     1       3.298   1.429  -5.630  0.00  0.00    +0.000 C 
ATOM     10  C   UNL     1       2.113   3.295  -4.501  0.00  0.00    +0.000 C 
ATOM     11  C   UNL     1       2.886   1.338  -3.184  0.00  0.00    +0.000 C 
ATOM     12  C   UNL     1       1.752   1.537  -2.459  0.00  0.00    +0.000 C 
ATOM     13  O   UNL     1       2.021  -1.307   0.148  0.00  0.00    +0.000 OA
ATOM     14  C   UNL     1       0.838  -1.099   0.905  0.00  0.00    +0.000 C 
ATOM     15  C   UNL     1      -0.374  -1.225  -0.004  0.00  0.00    +0.000 C 
ATOM     16  C   UNL     1       4.467  -1.799  -1.353  0.00  0.00    +0.000 C 
ATOM     17  O   UNL     1       5.526  -1.985  -2.031  0.00  0.00    +0.000 OA
ENDROOT
BRANCH  14  18
ATOM     18  C   UNL     1       0.754  -2.141   2.009  0.00  0.00    +0.000 A 
ATOM     19  C   UNL     1       1.780  -2.243   3.014  0.00  0.00    +0.000 A 
ATOM     20  C   UNL     1       2.897  -1.335   2.997  0.00  0.00    +0.000 A 
ATOM     21  C   UNL     1       3.923  -1.437   4.002  0.00  0.00    +0.000 A 
ATOM     22  C   UNL     1       3.832  -2.447   5.025  0.00  0.00    +0.000 A 
ATOM     23  C   UNL     1      -0.364  -3.049   2.026  0.00  0.00    +0.000 A 
ATOM     24  O   UNL     1       4.843  -2.547   6.016  0.00  0.00    +0.000 OA
ATOM     25  C   UNL     1       4.753  -3.543   7.025  0.00  0.00    +0.000 C 
ATOM     26  O   UNL     1       5.026  -0.541   3.985  0.00  0.00    +0.000 OA
ENDBRANCH  14  18
BRANCH   1  27
ATOM     27  C   UNL     1       1.669   1.500  -2.355  0.00  0.00    +0.000 C 
BRANCH  27  31
ATOM     28  C   UNL     1       0.973   0.081   0.053  0.00  0.00    +0.000 C 
ATOM     29  C   UNL     1       0.466  -0.412  -1.293  0.00  0.00    +0.000 C 
ATOM     30  C   UNL     1      -0.408  -1.653  -1.369  0.00  0.00    +0.000 C 
ATOM     31  C   UNL     1       0.795   0.259  -2.430  0.00  0.00    +0.000 C 
ENDBRANCH  27  31
ENDBRANCH   1  27
TORSDOF 3
