REMARK  Name = 
REMARK  13 active torsions:
REMARK  status: ('A' for Active; 'I' for Inactive)
REMARK    1  A    between atoms: CG1_1  and  CB_2
REMARK    2  A    between atoms: CB_2  and  CG2_3
REMARK    3  A    between atoms: CB_2  and  CA_4
REMARK    4  A    between atoms: CA_4  and  C_5
REMARK    5  A    between atoms: CA_4  and  N_7
REMARK    6  A    between atoms: C_5  and  O_6
REMARK    7  A    between atoms: N_11  and  C_12
REMARK    8  A    between atoms: C_12  and  C_13
REMARK    9  A    between atoms: C_16  and  S_17
REMARK   10  A    between atoms: S_17  and  N_18
REMARK   11  A    between atoms: N_26  and  C_27
REMARK   12  A    between atoms: C_27  and  C_28
REMARK   13  A    between atoms: C_27  and  C_29
REMARK                            x       y       z     vdW  Elec       q    Type
REMARK                         _______ _______ _______ _____ _____    ______ ____
ROOT
ATOM      1  N   VAL A   1      -1.481  -0.441   2.879  0.00  0.00    +0.000 N 
ATOM      2  C   UNK A   0      -2.326   0.577   3.519  0.00  0.00    +0.000 A 
ATOM      3  N   UNK A   0      -2.663   1.739   2.827  0.00  0.00    +0.000 NA
ATOM      4  C   UNK A   0      -3.463   2.703   3.434  0.00  0.00    +0.000 A 
ATOM      5  N   UNK A   0      -3.953   2.496   4.805  0.00  0.00    +0.000 N 
ATOM      6  C   UNK A   0      -3.811   3.904   2.719  0.00  0.00    +0.000 A 
ATOM      7  N   UNK A   0      -4.612   4.869   3.326  0.00  0.00    +0.000 NA
ATOM      8  C   UNK A   0      -4.949   6.030   2.634  0.00  0.00    +0.000 A 
ATOM      9  N   UNK A   0      -4.484   6.226   1.336  0.00  0.00    +0.000 N 
ATOM     10  C   UNK A   0      -3.331   4.107   1.377  0.00  0.00    +0.000 A 
ATOM     11  N   UNK A   0      -2.790   0.381   4.817  0.00  0.00    +0.000 NA
ATOM     12  H   VAL A   1      -1.235  -1.291   3.385  0.00  0.00    +0.000 HD
ATOM     13  H   UNK A   0      -3.707   1.645   5.311  0.00  0.00    +0.000 HD
ENDROOT
BRANCH   9  14
ATOM     14  C   UNK A   0      -3.639   5.208   0.695  0.00  0.00    +0.000 C 
ATOM     15  C   UNK A   0      -2.372   5.014   1.513  0.00  0.00    +0.000 C 
ATOM     16  C   UNK A   0      -4.399   3.894   0.619  0.00  0.00    +0.000 C 
ENDBRANCH   9  14
BRANCH   1  17
ATOM     17  CA  VAL A   1      -0.991  -0.233   1.508  0.00  0.00    +0.000 C 
BRANCH  17  19
ATOM     18  CG1 VAL A   1      -0.272  -1.670  -0.226  0.00  0.00    +0.000 C 
ATOM     19  CB  VAL A   1      -1.498  -1.353   0.614  0.00  0.00    +0.000 C 
ATOM     20  CG2 VAL A   1      -1.876  -2.573   1.438  0.00  0.00    +0.000 C 
ENDBRANCH  17  19
BRANCH  17  21
ATOM     21  C   VAL A   1       0.529  -0.233   1.508  0.00  0.00    +0.000 C 
BRANCH  21  22
ATOM     22  O   VAL A   1       1.002   0.804   2.355  0.00  0.00    +0.000 OA
ATOM     23  H   VAL A   1       0.669   1.685   2.021  0.00  0.00    +0.000 HD
ENDBRANCH  21  22
ENDBRANCH  17  21
ENDBRANCH   1  17
BRANCH   5  24
ATOM     24  C   UNK A   0      -4.798   3.514   5.445  0.00  0.00    +0.000 C 
BRANCH  24  25
ATOM     25  C   UNK A   0      -6.141   2.902   5.810  0.00  0.00    +0.000 A 
ATOM     26  C   UNK A   0      -6.983   2.347   4.781  0.00  0.00    +0.000 A 
ATOM     27  C   UNK A   0      -6.553   2.373   3.407  0.00  0.00    +0.000 A 
ATOM     28  C   UNK A   0      -7.395   1.819   2.378  0.00  0.00    +0.000 A 
ATOM     29  C   UNK A   0      -8.667   1.239   2.724  0.00  0.00    +0.000 A 
ATOM     30  C   UNK A   0      -6.571   2.876   7.184  0.00  0.00    +0.000 A 
BRANCH  28  31
ATOM     31  S   UNK A   0      -6.854   1.852   0.651  0.00  0.00    +0.000 S 
ATOM     32  O   UNK A   0      -7.862   2.646  -0.184  0.00  0.00    +0.000 OA
ATOM     33  O   UNK A   0      -5.479   2.517   0.559  0.00  0.00    +0.000 OA
BRANCH  31  34
ATOM     34  N   UNK A   0      -6.751   0.205   0.037  0.00  0.00    +0.000 NA
ATOM     35  H   UNK A   0      -6.447   0.224  -0.936  0.00  0.00    +0.000 HD
ATOM     36  H   UNK A   0      -6.080  -0.324   0.594  0.00  0.00    +0.000 HD
ENDBRANCH  31  34
ENDBRANCH  28  31
ENDBRANCH  24  25
ENDBRANCH   5  24
TORSDOF 9
