REMARK  Name = 
REMARK  4 active torsions:
REMARK  status: ('A' for Active; 'I' for Inactive)
REMARK    1  A    between atoms: C_1  and  O_2
REMARK    2  A    between atoms: O_2  and  C_3
REMARK    3  A    between atoms: C_6  and  C_7
REMARK    4  A    between atoms: C_10  and  C_11
REMARK                            x       y       z     vdW  Elec       q    Type
REMARK                         _______ _______ _______ _____ _____    ______ ____
ROOT
ATOM      1  C   UNL     1      -1.847  -5.649   1.789  0.00  0.00    +0.000 C 
ATOM      2  C   UNL     1      -2.301  -6.924   1.932  0.00  0.00    +0.000 C 
ATOM      3  S   UNL     1      -1.864  -8.183   0.708  0.00  0.00    +0.000 S 
ATOM      4  C   UNL     1      -2.613  -9.764   1.174  0.00  0.00    +0.000 C 
ATOM      5  N   UNL     1      -2.426 -10.827   0.423  0.00  0.00    +0.000 NA
ATOM      6  C   UNL     1      -3.175  -7.290   3.121  0.00  0.00    +0.000 C 
ATOM      7  O   UNL     1      -3.482  -6.406   3.980  0.00  0.00    +0.000 OA
ENDROOT
BRANCH   4   8
ATOM      8  C   UNL     1      -3.457  -9.862   2.434  0.00  0.00    +0.000 A 
ATOM      9  C   UNL     1      -3.661  -8.698   3.257  0.00  0.00    +0.000 A 
ATOM     10  C   UNL     1      -3.065  -7.440   2.886  0.00  0.00    +0.000 A 
ATOM     11  C   UNL     1      -3.269  -6.276   3.709  0.00  0.00    +0.000 A 
ATOM     12 BR   UNL     1      -2.458  -4.565   3.204  0.00  0.00    +0.000 Br
ATOM     13  C   UNL     1      -4.069  -6.370   4.903  0.00  0.00    +0.000 A 
ATOM     14  C   UNL     1      -4.053 -11.120   2.805  0.00  0.00    +0.000 A 
ENDBRANCH   4   8
BRANCH   1  18
ATOM     15  C   UNL     1       0.815  -2.237  -0.830  0.00  0.00    +0.000 A 
ATOM     16  C   UNL     1       0.335  -3.586  -0.678  0.00  0.00    +0.000 A 
ATOM     17  C   UNL     1      -0.493  -3.934   0.448  0.00  0.00    +0.000 A 
ATOM     18  C   UNL     1      -0.974  -5.283   0.600  0.00  0.00    +0.000 A 
ATOM     19  C   UNL     1      -0.626  -6.285  -0.374  0.00  0.00    +0.000 A 
ATOM     20  C   UNL     1       1.643  -1.890  -1.956  0.00  0.00    +0.000 A 
BRANCH  15  22
ATOM     21  C   UNL     1       0.945   0.081  -0.019  0.00  0.00    +0.000 C 
ATOM     22  O   UNL     1       0.472  -1.249   0.131  0.00  0.00    +0.000 OA
ENDBRANCH  15  22
ENDBRANCH   1  18
TORSDOF 3
