REMARK  Name = 
REMARK  6 active torsions:
REMARK  status: ('A' for Active; 'I' for Inactive)
REMARK    1  A    between atoms: C_2  and  O_3
REMARK    2  A    between atoms: C_2  and  C_4
REMARK    3  A    between atoms: C_6  and  C_7
REMARK    4  A    between atoms: C_7  and  O_9
REMARK    5  A    between atoms: C_11  and  C_12
REMARK    6  A    between atoms: C_15  and  C_16
REMARK                            x       y       z     vdW  Elec       q    Type
REMARK                         _______ _______ _______ _____ _____    ______ ____
ROOT
ATOM      1  C   UNL     1       2.201  -0.025   0.085  0.00  0.00    +0.000 A 
ATOM      2  C   UNL     1       0.760  -0.025   0.085  0.00  0.00    +0.000 A 
ATOM      3  C   UNL     1       0.040   0.824  -0.829  0.00  0.00    +0.000 A 
ATOM      4  C   UNL     1      -1.400   0.824  -0.829  0.00  0.00    +0.000 A 
ATOM      5  O   UNL     1       2.873  -0.818   0.938  0.00  0.00    +0.000 OA
ENDROOT
BRANCH   4   6
ATOM      6  C   UNL     1      -2.160  -0.072   0.135  0.00  0.00    +0.000 C 
ATOM      7  C   UNL     1      -1.480  -0.874   0.998  0.00  0.00    +0.000 A 
ATOM      8  S   UNL     1      -2.337  -1.885   2.086  0.00  0.00    +0.000 S 
ATOM      9  C   UNL     1      -1.480  -2.896   3.174  0.00  0.00    +0.000 A 
ATOM     10  N   UNL     1      -2.176  -3.717   4.058  0.00  0.00    +0.000 NA
ATOM     11  C   UNL     1      -1.480  -4.539   4.941  0.00  0.00    +0.000 A 
ATOM     12  C   UNL     1      -2.200  -5.388   5.855  0.00  0.00    +0.000 A 
ATOM     13  C   UNL     1      -3.640  -5.388   5.855  0.00  0.00    +0.000 A 
ATOM     14  C   UNL     1      -4.360  -6.237   6.768  0.00  0.00    +0.000 A 
ATOM     15  C   UNL     1      -5.800  -6.237   6.768  0.00  0.00    +0.000 A 
ATOM     16  C   UNL     1      -0.039  -4.539   4.941  0.00  0.00    +0.000 A 
ATOM     17  N   UNL     1      -0.087  -2.896   3.174  0.00  0.00    +0.000 N 
ATOM     18  C   UNL     1      -0.039  -0.874   0.998  0.00  0.00    +0.000 A 
ATOM     19  O   UNL     1       0.596  -0.125   0.192  0.00  0.00    +0.000 OA
ENDBRANCH   4   6
BRANCH   1  24
ATOM     20  C   UNL     1       2.961  -0.827   0.948  0.00  0.00    +0.000 A 
ATOM     21  C   UNL     1       4.401  -0.827   0.948  0.00  0.00    +0.000 A 
ATOM     22  C   UNL     1       5.121   0.022   0.034  0.00  0.00    +0.000 A 
ATOM     23  C   UNL     1       4.401   0.871  -0.880  0.00  0.00    +0.000 A 
ATOM     24  C   UNL     1       2.961   0.871  -0.880  0.00  0.00    +0.000 A 
ATOM     25  C   UNL     1       2.241  -1.676   1.861  0.00  0.00    +0.000 A 
BRANCH  20  27
ATOM     26  O   UNL     1       0.930   0.069  -0.017  0.00  0.00    +0.000 OA
ATOM     27  C   UNL     1       2.201   0.069  -0.017  0.00  0.00    +0.000 C 
BRANCH  27  28
ATOM     28  O   UNL     1       2.911   0.906  -0.917  0.00  0.00    +0.000 OA
ATOM     29  H   UNL     1       3.911   0.906  -0.917  0.00  0.00    +0.000 HD
ENDBRANCH  27  28
ENDBRANCH  20  27
BRANCH  22  30
ATOM     30  C   UNL     1       6.641   0.022   0.034  0.00  0.00    +0.000 C 
ATOM     31  O   UNL     1       7.276   0.771  -0.772  0.00  0.00    +0.000 OA
BRANCH  30  32
ATOM     32  O   UNL     1       7.351  -0.815   0.935  0.00  0.00    +0.000 OA
ATOM     33  H   UNL     1       8.351  -0.815   0.935  0.00  0.00    +0.000 HD
ENDBRANCH  30  32
ENDBRANCH  22  30
ENDBRANCH   1  24
TORSDOF 6
