REMARK  Name = 
REMARK  12 active torsions:
REMARK  status: ('A' for Active; 'I' for Inactive)
REMARK    1  A    between atoms: C_1  and  C_2
REMARK    2  A    between atoms: C_2  and  C_3
REMARK    3  A    between atoms: C_4  and  C_5
REMARK    4  A    between atoms: C_5  and  C_6
REMARK    5  A    between atoms: C_6  and  C_7
REMARK    6  A    between atoms: C_7  and  C_8
REMARK    7  A    between atoms: C_15  and  C_16
REMARK    8  A    between atoms: C_16  and  C_18
REMARK    9  A    between atoms: C_19  and  C_20
REMARK   10  A    between atoms: C_23  and  O_24
REMARK   11  A    between atoms: C_25  and  O_26
REMARK   12  A    between atoms: C_28  and  O_29
REMARK                            x       y       z     vdW  Elec       q    Type
REMARK                         _______ _______ _______ _____ _____    ______ ____
ROOT
ATOM      1  C   UNL     1       2.525   0.750   4.714  0.00  0.00    +0.000 C 
ATOM      2  C   UNL     1       3.792   1.229   5.405  0.00  0.00    +0.000 C 
ATOM      3  C   UNL     1       1.651   1.946   4.373  0.00  0.00    +0.000 C 
ATOM      4  C   UNL     1       1.322   2.201   3.077  0.00  0.00    +0.000 C 
ATOM      5  C   UNL     1       0.449   3.397   2.736  0.00  0.00    +0.000 A 
ATOM      6  C   UNL     1      -0.031   4.260   3.784  0.00  0.00    +0.000 A 
ATOM      7  C   UNL     1      -0.859   5.394   3.460  0.00  0.00    +0.000 A 
ATOM      8  C   UNL     1      -1.207   5.663   2.089  0.00  0.00    +0.000 A 
ATOM      9  C   UNL     1      -2.035   6.796   1.766  0.00  0.00    +0.000 A 
ATOM     10  C   UNL     1       0.101   3.666   1.365  0.00  0.00    +0.000 A 
ATOM     11  O   UNL     1       1.815  -0.123   5.580  0.00  0.00    +0.000 OA
ENDROOT
BRANCH   9  12
ATOM     12  C   UNL     1      -2.542   7.708   2.871  0.00  0.00    +0.000 C 
ATOM     13  O   UNL     1      -2.235   7.470   4.082  0.00  0.00    +0.000 OA
BRANCH  12  14
ATOM     14  C   UNL     1      -3.416   8.904   2.530  0.00  0.00    +0.000 C 
ATOM     15  C   UNL     1      -3.745   9.158   1.235  0.00  0.00    +0.000 C 
BRANCH  15  16
ATOM     16  C   UNL     1      -4.618  10.354   0.893  0.00  0.00    +0.000 A 
ATOM     17  C   UNL     1      -5.098  11.218   1.941  0.00  0.00    +0.000 A 
ATOM     18  C   UNL     1      -4.751  10.948   3.313  0.00  0.00    +0.000 A 
ATOM     19  C   UNL     1      -5.231  11.812   4.360  0.00  0.00    +0.000 A 
ATOM     20  C   UNL     1      -6.059  12.945   4.037  0.00  0.00    +0.000 A 
ATOM     21  C   UNL     1      -4.966  10.624  -0.478  0.00  0.00    +0.000 A 
BRANCH  19  22
ATOM     22  O   UNL     1      -4.888  11.546   5.712  0.00  0.00    +0.000 OA
ATOM     23  H   UNL     1      -4.313  10.759   5.937  0.00  0.00    +0.000 HD
ENDBRANCH  19  22
BRANCH  20  24
ATOM     24  O   UNL     1      -6.532  13.796   5.070  0.00  0.00    +0.000 OA
ATOM     25  H   UNL     1      -7.107  14.583   4.846  0.00  0.00    +0.000 HD
ENDBRANCH  20  24
ENDBRANCH  15  16
ENDBRANCH  12  14
ENDBRANCH   9  12
BRANCH  10  26
ATOM     26  O   UNL     1       0.574   2.815   0.332  0.00  0.00    +0.000 OA
ATOM     27  H   UNL     1       0.332   3.002  -0.621  0.00  0.00    +0.000 HD
ENDBRANCH  10  26
BRANCH   1  28
ATOM     28  C   UNL     1       2.892   0.011   3.438  0.00  0.00    +0.000 C 
BRANCH  28  29
ATOM     29  C   UNL     1       1.626  -0.468   2.748  0.00  0.00    +0.000 C 
BRANCH  29  33
ATOM     30  C   UNL     1       0.930   0.071   0.005  0.00  0.00    +0.000 C 
ATOM     31  C   UNL     1       0.423   0.982   1.111  0.00  0.00    +0.000 C 
ATOM     32  C   UNL     1      -0.451   2.178   0.769  0.00  0.00    +0.000 C 
ATOM     33  C   UNL     1       0.752   0.728   2.406  0.00  0.00    +0.000 C 
ENDBRANCH  29  33
ENDBRANCH  28  29
ENDBRANCH   1  28
TORSDOF 9
