REMARK  Name = 
REMARK  6 active torsions:
REMARK  status: ('A' for Active; 'I' for Inactive)
REMARK    1  A    between atoms: C_1  and  C_2
REMARK    2  A    between atoms: C_2  and  C_3
REMARK    3  A    between atoms: N_8  and  C_9
REMARK    4  A    between atoms: C_12  and  N_13
REMARK    5  A    between atoms: C_14  and  C_16
REMARK    6  A    between atoms: C_19  and  N_20
REMARK                            x       y       z     vdW  Elec       q    Type
REMARK                         _______ _______ _______ _____ _____    ______ ____
ROOT
ATOM      1  C   UNL     1       0.175  -3.187   4.794  0.00  0.00    +0.000 A 
ATOM      2  C   UNL     1       0.895  -3.892   5.824  0.00  0.00    +0.000 A 
ATOM      3  C   UNL     1       2.335  -3.892   5.824  0.00  0.00    +0.000 A 
ATOM      4  C   UNL     1       3.055  -4.597   6.853  0.00  0.00    +0.000 A 
ATOM      5  C   UNL     1       2.335  -5.301   7.882  0.00  0.00    +0.000 A 
ATOM      6  C   UNL     1      -1.266  -3.187   4.794  0.00  0.00    +0.000 A 
ATOM      7 CL   UNL     1      -2.156  -2.316   3.523  0.00  0.00    +0.000 Cl
ENDROOT
BRANCH   1  13
ATOM      8  C   UNL     1       0.951  -2.152   1.086  0.00  0.00    +0.000 C 
ATOM      9  O   UNL     1       0.125  -2.698   1.884  0.00  0.00    +0.000 OA
ATOM     10  N   UNL     1       2.396  -2.304   1.308  0.00  0.00    +0.000 N 
ATOM     11  C   UNL     1       2.886  -3.087   2.452  0.00  0.00    +0.000 C 
ATOM     12  C   UNL     1       2.380  -2.468   3.744  0.00  0.00    +0.000 C 
ATOM     13  N   UNL     1       0.910  -2.468   3.744  0.00  0.00    +0.000 N 
ATOM     14  C   UNL     1       0.175  -1.749   2.694  0.00  0.00    +0.000 C 
ATOM     15  C   UNL     1       3.352  -1.673   0.386  0.00  0.00    +0.000 C 
BRANCH   8  17
ATOM     16  C   UNL     1       0.951   0.086   0.014  0.00  0.00    +0.000 C 
ATOM     17  C   UNL     1       0.444  -1.343  -0.096  0.00  0.00    +0.000 C 
ENDBRANCH   8  17
ENDBRANCH   1  13
BRANCH   4  18
ATOM     18  N   UNL     1       4.525  -4.597   6.853  0.00  0.00    +0.000 N 
ATOM     19  C   UNL     1       5.260  -5.316   7.903  0.00  0.00    +0.000 C 
ATOM     20  O   UNL     1       6.531  -5.316   7.903  0.00  0.00    +0.000 OA
ATOM     21  H   UNL     1       5.035  -4.097   6.124  0.00  0.00    +0.000 HD
BRANCH  19  22
ATOM     22  C   UNL     1       4.500  -6.059   8.989  0.00  0.00    +0.000 A 
ATOM     23  C   UNL     1       5.220  -6.764  10.018  0.00  0.00    +0.000 A 
ATOM     24  C   UNL     1       6.660  -6.764  10.018  0.00  0.00    +0.000 A 
ATOM     25  C   UNL     1       7.380  -7.469  11.047  0.00  0.00    +0.000 A 
ATOM     26  O   UNL     1       3.155  -6.059   8.989  0.00  0.00    +0.000 OA
BRANCH  25  27
ATOM     27  N   UNL     1       6.645  -8.188  12.098  0.00  0.00    +0.000 N 
ATOM     28  O   UNL     1       5.419  -8.188  12.098  0.00  0.00    +0.000 OA
ATOM     29  O   UNL     1       7.330  -8.858  13.077  0.00  0.00    +0.000 OA
ENDBRANCH  25  27
ENDBRANCH  19  22
ENDBRANCH   4  18
TORSDOF 5
