REMARK  Name = 
REMARK  6 active torsions:
REMARK  status: ('A' for Active; 'I' for Inactive)
REMARK    1  A    between atoms: C_1  and  O_2
REMARK    2  A    between atoms: O_2  and  C_3
REMARK    3  A    between atoms: C_6  and  C_7
REMARK    4  A    between atoms: N_9  and  N_10
REMARK    5  A    between atoms: C_11  and  C_12
REMARK    6  A    between atoms: C_20  and  O_21
REMARK                            x       y       z     vdW  Elec       q    Type
REMARK                         _______ _______ _______ _____ _____    ______ ____
ROOT
ATOM      1  N   UNL     1      -1.635   4.106   0.931  0.00  0.00    +0.000 NA
ATOM      2  C   UNL     1      -0.878   3.104   1.324  0.00  0.00    +0.000 C 
ENDROOT
BRANCH   2   3
ATOM      3  C   UNL     1      -0.372   2.091   0.311  0.00  0.00    +0.000 A 
ATOM      4  S   UNL     1      -0.786   2.253  -1.345  0.00  0.00    +0.000 S 
ATOM      5  C   UNL     1      -0.214   1.110  -2.488  0.00  0.00    +0.000 A 
ATOM      6  C   UNL     1      -0.562   1.246  -3.879  0.00  0.00    +0.000 A 
ATOM      7  C   UNL     1      -1.390   2.343  -4.310  0.00  0.00    +0.000 A 
ATOM      8  C   UNL     1      -1.738   2.479  -5.701  0.00  0.00    +0.000 A 
ATOM      9  C   UNL     1      -2.566   3.576  -6.132  0.00  0.00    +0.000 A 
ATOM     10  C   UNL     1       0.614   0.013  -2.057  0.00  0.00    +0.000 A 
ATOM     11  C   UNL     1       0.456   0.994   0.742  0.00  0.00    +0.000 A 
BRANCH  11  12
ATOM     12  O   UNL     1       0.799   0.859   2.114  0.00  0.00    +0.000 OA
ATOM     13  H   UNL     1       1.374   0.098   2.413  0.00  0.00    +0.000 HD
ENDBRANCH  11  12
ENDBRANCH   2   3
BRANCH   1  16
ATOM     14  C   UNL     1      -1.753   4.914   3.297  0.00  0.00    +0.000 C 
ATOM     15  O   UNL     1      -2.177   5.761   4.144  0.00  0.00    +0.000 OA
ATOM     16  N   UNL     1      -2.108   5.053   1.877  0.00  0.00    +0.000 N 
ATOM     17  H   UNL     1      -2.694   5.830   1.572  0.00  0.00    +0.000 HD
BRANCH  14  21
ATOM     18  C   UNL     1       0.909   0.739   2.263  0.00  0.00    +0.000 A 
ATOM     19  C   UNL     1       0.429   1.699   3.223  0.00  0.00    +0.000 A 
ATOM     20  C   UNL     1      -0.399   2.796   2.792  0.00  0.00    +0.000 A 
ATOM     21  C   UNL     1      -0.879   3.756   3.752  0.00  0.00    +0.000 A 
ATOM     22  C   UNL     1      -0.531   3.620   5.142  0.00  0.00    +0.000 A 
ATOM     23  C   UNL     1       1.737  -0.358   2.694  0.00  0.00    +0.000 A 
BRANCH  18  25
ATOM     24  C   UNL     1       1.039  -0.074  -0.055  0.00  0.00    +0.000 C 
ATOM     25  O   UNL     1       0.566   0.873   0.891  0.00  0.00    +0.000 OA
ENDBRANCH  18  25
ENDBRANCH  14  21
ENDBRANCH   1  16
TORSDOF 5
