REMARK  Name = 
REMARK  7 active torsions:
REMARK  status: ('A' for Active; 'I' for Inactive)
REMARK    1  A    between atoms: C_6  and  O_7
REMARK    2  A    between atoms: O_7  and  C_8
REMARK    3  A    between atoms: C_11  and  O_12
REMARK    4  A    between atoms: O_12  and  C_13
REMARK    5  A    between atoms: C_13  and  C_14
REMARK    6  A    between atoms: C_14  and  C_15
REMARK    7  A    between atoms: C_15  and  N_16
REMARK                            x       y       z     vdW  Elec       q    Type
REMARK                         _______ _______ _______ _____ _____    ______ ____
ROOT
ATOM      1  C   UNL     1      -3.876  -2.669   2.669  0.00  0.00    +0.000 A 
ATOM      2  C   UNL     1      -5.317  -2.669   2.669  0.00  0.00    +0.000 A 
ATOM      3  C   UNL     1      -6.037  -1.769   1.805  0.00  0.00    +0.000 A 
ATOM      4  C   UNL     1      -7.477  -1.769   1.805  0.00  0.00    +0.000 A 
ATOM      5  C   UNL     1      -8.197  -2.669   2.669  0.00  0.00    +0.000 A 
ATOM      6  C   UNL     1      -3.156  -3.569   3.533  0.00  0.00    +0.000 A 
ENDROOT
BRANCH   1   7
ATOM      7  O   UNL     1      -3.166  -1.782   1.817  0.00  0.00    +0.000 OA
BRANCH   7  13
ATOM      8  C   UNL     1       1.063   0.047   0.062  0.00  0.00    +0.000 A 
ATOM      9  C   UNL     1       0.343  -0.852   0.925  0.00  0.00    +0.000 A 
ATOM     10  C   UNL     1       1.063  -1.752   1.789  0.00  0.00    +0.000 A 
ATOM     11  C   UNL     1       0.343  -2.652   2.653  0.00  0.00    +0.000 A 
ATOM     12  N   UNL     1      -1.050  -2.652   2.653  0.00  0.00    +0.000 N 
ATOM     13  C   UNL     1      -1.746  -1.782   1.817  0.00  0.00    +0.000 A 
ATOM     14  N   UNL     1      -1.050  -0.912   0.982  0.00  0.00    +0.000 NA
ATOM     15  C   UNL     1       1.063  -3.552   3.516  0.00  0.00    +0.000 A 
ATOM     16  C   UNL     1       0.343   0.947  -0.802  0.00  0.00    +0.000 A 
ATOM     17  H   UNL     1      -1.560  -3.289   3.264  0.00  0.00    +0.000 HD
ENDBRANCH   7  13
ENDBRANCH   1   7
BRANCH   4  18
ATOM     18  O   UNL     1      -8.187  -0.882   0.954  0.00  0.00    +0.000 OA
BRANCH  18  19
ATOM     19  C   UNL     1      -7.477   0.005   0.102  0.00  0.00    +0.000 C 
BRANCH  19  20
ATOM     20  C   UNL     1      -6.603   0.923   0.942  0.00  0.00    +0.000 C 
BRANCH  20  21
ATOM     21  C   UNL     1      -5.615   0.089   1.742  0.00  0.00    +0.000 C 
BRANCH  21  22
ATOM     22  N   UNL     1      -4.770  -0.686   0.822  0.00  0.00    +0.000 NA
ATOM     23  C   UNL     1      -5.615  -1.573   0.010  0.00  0.00    +0.000 C 
ATOM     24  C   UNL     1      -6.375  -2.523   0.921  0.00  0.00    +0.000 C 
ATOM     25  C   UNL     1      -7.249  -1.721   1.873  0.00  0.00    +0.000 C 
ATOM     26  C   UNL     1      -8.237  -0.888   1.073  0.00  0.00    +0.000 C 
ATOM     27  C   UNL     1      -3.815  -1.492   1.596  0.00  0.00    +0.000 C 
ENDBRANCH  21  22
ENDBRANCH  20  21
ENDBRANCH  19  20
ENDBRANCH  18  19
ENDBRANCH   4  18
TORSDOF 7
