REMARK  Name = 
REMARK  8 active torsions:
REMARK  status: ('A' for Active; 'I' for Inactive)
REMARK    1  A    between atoms: C_1  and  C_2
REMARK    2  A    between atoms: C_5  and  C_6
REMARK    3  A    between atoms: C_8  and  C_9
REMARK    4  A    between atoms: N_11  and  N_12
REMARK    5  A    between atoms: C_13  and  C_14
REMARK    6  A    between atoms: C_15  and  C_16
REMARK    7  A    between atoms: N_18  and  C_19
REMARK    8  A    between atoms: C_25  and  C_26
REMARK                            x       y       z     vdW  Elec       q    Type
REMARK                         _______ _______ _______ _____ _____    ______ ____
ROOT
ATOM      1  C   UNL     1       3.054  -1.997  -8.394  0.00  0.00    +0.000 C 
ATOM      2  O   UNL     1       3.784  -1.191  -9.051  0.00  0.00    +0.000 OA
ATOM      3  N   UNL     1       2.564  -3.229  -9.029  0.00  0.00    +0.000 N 
ATOM      4  H   UNL     1       2.810  -3.437  -9.997  0.00  0.00    +0.000 HD
ENDROOT
BRANCH   1   7
ATOM      5  C   UNL     1       1.511  -2.307  -4.841  0.00  0.00    +0.000 A 
ATOM      6  C   UNL     1       1.859  -2.601  -6.208  0.00  0.00    +0.000 A 
ATOM      7  C   UNL     1       2.686  -1.687  -6.952  0.00  0.00    +0.000 A 
ATOM      8  N   UNL     1       3.151  -0.520  -6.351  0.00  0.00    +0.000 NA
ATOM      9  N   UNL     1       0.710  -3.190  -4.121  0.00  0.00    +0.000 N 
ATOM     10  H   UNL     1       0.463  -2.983  -3.154  0.00  0.00    +0.000 HD
BRANCH   5  15
ATOM     11  C   UNL     1       1.000  -0.086  -0.051  0.00  0.00    +0.000 C 
ATOM     12  C   UNL     1       0.493  -1.360  -0.708  0.00  0.00    +0.000 A 
ATOM     13  C   UNL     1       0.841  -1.653  -2.074  0.00  0.00    +0.000 A 
ATOM     14  C   UNL     1       1.669  -0.740  -2.818  0.00  0.00    +0.000 A 
ATOM     15  C   UNL     1       2.017  -1.033  -4.185  0.00  0.00    +0.000 A 
ATOM     16  S   UNL     1      -0.493  -2.448   0.179  0.00  0.00    +0.000 S 
ENDBRANCH   5  15
ENDBRANCH   1   7
BRANCH   3  17
ATOM     17  N   UNL     1       1.747  -4.129  -8.295  0.00  0.00    +0.000 NA
ATOM     18  C   UNL     1       1.429  -3.861  -7.047  0.00  0.00    +0.000 C 
BRANCH  18  19
ATOM     19  C   UNL     1       0.556  -4.825  -6.261  0.00  0.00    +0.000 A 
ATOM     20  C   UNL     1       0.076  -6.032  -6.883  0.00  0.00    +0.000 A 
ATOM     21  C   UNL     1       0.443  -6.342  -8.325  0.00  0.00    +0.000 C 
ATOM     22  N   UNL     1      -0.725  -6.916  -6.163  0.00  0.00    +0.000 NA
ATOM     23  N   UNL     1      -1.174  -8.043  -6.744  0.00  0.00    +0.000 N 
ATOM     24  C   UNL     1       0.208  -4.532  -4.895  0.00  0.00    +0.000 A 
ATOM     25  C   UNL     1       0.714  -3.258  -4.238  0.00  0.00    +0.000 C 
BRANCH  23  26
ATOM     26  C   UNL     1      -2.019  -8.976  -5.985  0.00  0.00    +0.000 A 
ATOM     27  C   UNL     1      -2.499 -10.183  -6.607  0.00  0.00    +0.000 A 
ATOM     28  C   UNL     1      -2.151 -10.476  -7.973  0.00  0.00    +0.000 A 
ATOM     29  C   UNL     1      -2.631 -11.683  -8.595  0.00  0.00    +0.000 A 
ATOM     30  C   UNL     1      -2.283 -11.977  -9.961  0.00  0.00    +0.000 A 
ATOM     31  C   UNL     1      -2.367  -8.682  -4.618  0.00  0.00    +0.000 A 
ENDBRANCH  23  26
ENDBRANCH  18  19
ENDBRANCH   3  17
TORSDOF 5
