REMARK  Name = 
REMARK  9 active torsions:
REMARK  status: ('A' for Active; 'I' for Inactive)
REMARK    1  A    between atoms: C_1  and  C_2
REMARK    2  A    between atoms: C_2  and  C_3
REMARK    3  A    between atoms: C_3  and  C_4
REMARK    4  A    between atoms: C_4  and  C_5
REMARK    5  A    between atoms: C_5  and  C_6
REMARK    6  A    between atoms: C_6  and  C_7
REMARK    7  A    between atoms: C_11  and  S_12
REMARK    8  A    between atoms: S_12  and  C_15
REMARK    9  A    between atoms: C_27  and  O_28
REMARK                            x       y       z     vdW  Elec       q    Type
REMARK                         _______ _______ _______ _____ _____    ______ ____
ROOT
ATOM      1  C   UNL     1      -1.092  -3.389   3.819  0.00  0.00    +0.000 A 
ATOM      2  C   UNL     1       0.324  -3.513   4.051  0.00  0.00    +0.000 A 
ATOM      3  C   UNL     1       1.260  -2.996   3.086  0.00  0.00    +0.000 A 
ATOM      4  C   UNL     1       0.780  -2.355   1.889  0.00  0.00    +0.000 A 
ATOM      5  C   UNL     1      -0.636  -2.231   1.657  0.00  0.00    +0.000 A 
ATOM      6  C   UNL     1      -1.572  -2.747   2.622  0.00  0.00    +0.000 A 
ATOM      7  O   UNL     1      -1.149  -3.313   3.678  0.00  0.00    +0.000 OA
ATOM      8  O   UNL     1      -2.895  -2.631   2.405  0.00  0.00    +0.000 OA
ATOM      9  C   UNL     1       2.676  -3.120   3.318  0.00  0.00    +0.000 A 
ATOM     10  C   UNL     1       3.156  -3.761   4.515  0.00  0.00    +0.000 A 
ATOM     11  C   UNL     1      -2.028  -3.905   4.784  0.00  0.00    +0.000 A 
ENDROOT
BRANCH   5  12
ATOM     12  S   UNL     1      -1.240  -1.425   0.153  0.00  0.00    +0.000 S 
ATOM     13  O   UNL     1      -2.090  -2.413  -0.649  0.00  0.00    +0.000 OA
ATOM     14  O   UNL     1      -2.090  -0.210   0.531  0.00  0.00    +0.000 OA
BRANCH  12  15
ATOM     15  C   UNL     1       0.168  -0.888  -0.850  0.00  0.00    +0.000 A 
ATOM     16  C   UNL     1      -0.056  -0.216  -2.104  0.00  0.00    +0.000 A 
ATOM     17  C   UNL     1      -1.400   0.028  -2.560  0.00  0.00    +0.000 A 
ATOM     18  C   UNL     1      -1.624   0.700  -3.814  0.00  0.00    +0.000 A 
ATOM     19  F   UNL     1      -2.865   0.926  -4.236  0.00  0.00    +0.000 F 
ATOM     20  C   UNL     1      -0.503   1.128  -4.612  0.00  0.00    +0.000 A 
ATOM     21  C   UNL     1       1.512  -1.132  -0.394  0.00  0.00    +0.000 A 
ENDBRANCH  12  15
ENDBRANCH   5  12
BRANCH  11  22
ATOM     22  O   UNL     1      -3.424  -3.783   4.555  0.00  0.00    +0.000 OA
ATOM     23  H   UNL     1      -4.074  -4.142   5.225  0.00  0.00    +0.000 HD
ENDBRANCH  11  22
BRANCH   1  24
ATOM     24  C   UNL     1      -1.599  -2.712   2.556  0.00  0.00    +0.000 C 
BRANCH  24  25
ATOM     25  C   UNL     1      -1.092  -1.280   2.510  0.00  0.00    +0.000 C 
BRANCH  25  26
ATOM     26  C   UNL     1       0.428  -1.280   2.510  0.00  0.00    +0.000 C 
BRANCH  26  27
ATOM     27  C   UNL     1       0.934  -2.035   1.293  0.00  0.00    +0.000 C 
BRANCH  27  29
ATOM     28  C   UNL     1       0.934   0.074  -0.016  0.00  0.00    +0.000 C 
ATOM     29  C   UNL     1       0.428  -1.359   0.029  0.00  0.00    +0.000 C 
ENDBRANCH  27  29
ENDBRANCH  26  27
ENDBRANCH  25  26
ENDBRANCH  24  25
ENDBRANCH   1  24
TORSDOF 8
