REMARK  Name = 
REMARK  3 active torsions:
REMARK  status: ('A' for Active; 'I' for Inactive)
REMARK    1  A    between atoms: C_10  and  C_11
REMARK    2  A    between atoms: N_13  and  C_14
REMARK    3  A    between atoms: C_22  and  C_23
REMARK                            x       y       z     vdW  Elec       q    Type
REMARK                         _______ _______ _______ _____ _____    ______ ____
ROOT
ATOM      1  C   UNL     1       0.902  -2.154  -1.392  0.00  0.00    +0.000 A 
ATOM      2  C   UNL     1       0.182  -1.105  -0.718  0.00  0.00    +0.000 A 
ATOM      3  N   UNL     1       0.878  -0.089  -0.066  0.00  0.00    +0.000 N 
ATOM      4  N   UNL     1       2.223  -0.089  -0.066  0.00  0.00    +0.000 NA
ATOM      5  C   UNL     1       0.182  -3.204  -2.066  0.00  0.00    +0.000 A 
ENDROOT
BRANCH   1  15
ATOM      6  O   UNL     1       1.071  -0.055  -0.044  0.00  0.00    +0.000 OA
ATOM      7  C   UNL     1       2.342  -0.055  -0.044  0.00  0.00    +0.000 C 
ATOM      8  N   UNL     1       3.077   1.016   0.644  0.00  0.00    +0.000 N 
ATOM      9  C   UNL     1       2.342   2.088   1.331  0.00  0.00    +0.000 C 
ATOM     10  S   UNL     1       3.152   3.268   2.089  0.00  0.00    +0.000 S 
ATOM     11  N   UNL     1       0.872   2.088   1.331  0.00  0.00    +0.000 N 
ATOM     12  C   UNL     1       0.137   1.016   0.644  0.00  0.00    +0.000 C 
ATOM     13  O   UNL     1       0.772   0.090   0.049  0.00  0.00    +0.000 OA
ATOM     14  C   UNL     1       3.102  -1.163  -0.755  0.00  0.00    +0.000 C 
ATOM     15  C   UNL     1       2.422  -2.154  -1.392  0.00  0.00    +0.000 C 
ATOM     16  H   UNL     1       4.097   1.016   0.644  0.00  0.00    +0.000 HD
ATOM     17  H   UNL     1       0.362   2.831   1.809  0.00  0.00    +0.000 HD
ENDBRANCH   1  15
BRANCH   3  18
ATOM     18  C   UNL     1       0.143   0.982   0.622  0.00  0.00    +0.000 A 
ATOM     19  C   UNL     1      -1.297   0.982   0.622  0.00  0.00    +0.000 A 
ATOM     20  C   UNL     1      -2.017  -0.068  -0.052  0.00  0.00    +0.000 A 
ATOM     21  C   UNL     1      -3.458  -0.068  -0.052  0.00  0.00    +0.000 A 
ATOM     22 CL   UNL     1      -4.348  -1.365  -0.885  0.00  0.00    +0.000 Cl
ATOM     23  C   UNL     1      -4.178   0.982   0.622  0.00  0.00    +0.000 A 
ATOM     24  C   UNL     1       0.863   2.031   1.295  0.00  0.00    +0.000 A 
ENDBRANCH   3  18
BRANCH   5  25
ATOM     25  C   UNL     1       0.942  -4.311  -2.777  0.00  0.00    +0.000 A 
ATOM     26  C   UNL     1       0.221  -5.361  -3.450  0.00  0.00    +0.000 A 
ATOM     27  C   UNL     1      -1.219  -5.361  -3.450  0.00  0.00    +0.000 A 
ATOM     28  C   UNL     1      -1.939  -6.411  -4.124  0.00  0.00    +0.000 A 
ATOM     29  C   UNL     1      -3.379  -6.411  -4.124  0.00  0.00    +0.000 A 
ATOM     30  C   UNL     1       2.382  -4.311  -2.777  0.00  0.00    +0.000 A 
ENDBRANCH   5  25
TORSDOF 3
