REMARK  Name = 
REMARK  4 active torsions:
REMARK  status: ('A' for Active; 'I' for Inactive)
REMARK    1  A    between atoms: C_1  and  O_2
REMARK    2  A    between atoms: O_2  and  C_3
REMARK    3  A    between atoms: C_6  and  N_7
REMARK    4  A    between atoms: C_9  and  C_10
REMARK                            x       y       z     vdW  Elec       q    Type
REMARK                         _______ _______ _______ _____ _____    ______ ____
ROOT
ATOM      1  N   UNL     1      -1.678   1.610   5.720  0.00  0.00    +0.000 N 
ATOM      2  N   UNL     1      -2.003   2.548   4.812  0.00  0.00    +0.000 NA
ATOM      3  C   UNL     1      -2.804   3.627   5.181  0.00  0.00    +0.000 A 
ATOM      4  C   UNL     1      -3.152   4.631   4.209  0.00  0.00    +0.000 A 
ATOM      5 CL   UNL     1      -2.559   4.494   2.537  0.00  0.00    +0.000 Cl
ATOM      6  C   UNL     1      -3.980   5.746   4.591  0.00  0.00    +0.000 A 
ATOM      7  C   UNL     1      -2.143   1.717   7.029  0.00  0.00    +0.000 A 
ATOM      8  O   UNL     1      -1.836   0.831   7.887  0.00  0.00    +0.000 OA
ENDROOT
BRANCH   1  12
ATOM      9  C   UNL     1       0.955  -0.864   2.243  0.00  0.00    +0.000 A 
ATOM     10  C   UNL     1       0.475  -0.754   3.596  0.00  0.00    +0.000 A 
ATOM     11  C   UNL     1      -0.353   0.361   3.978  0.00  0.00    +0.000 A 
ATOM     12  C   UNL     1      -0.833   0.472   5.331  0.00  0.00    +0.000 A 
ATOM     13  C   UNL     1      -0.485  -0.532   6.303  0.00  0.00    +0.000 A 
ATOM     14  C   UNL     1       1.783  -1.979   1.862  0.00  0.00    +0.000 A 
BRANCH   9  16
ATOM     15  C   UNL     1       1.085   0.017  -0.050  0.00  0.00    +0.000 C 
ATOM     16  O   UNL     1       0.612   0.126   1.285  0.00  0.00    +0.000 OA
ENDBRANCH   9  16
ENDBRANCH   1  12
BRANCH   3  17
ATOM     17  C   UNL     1      -3.311   3.743   6.610  0.00  0.00    +0.000 C 
ATOM     18  N   UNL     1      -3.731   3.840   7.794  0.00  0.00    +0.000 NA
ENDBRANCH   3  17
TORSDOF 3
