REMARK  Name = 
REMARK  8 active torsions:
REMARK  status: ('A' for Active; 'I' for Inactive)
REMARK    1  A    between atoms: C_1  and  O_2
REMARK    2  A    between atoms: O_2  and  C_3
REMARK    3  A    between atoms: C_6  and  C_7
REMARK    4  A    between atoms: C_7  and  N_9
REMARK    5  A    between atoms: N_14  and  O_15
REMARK    6  A    between atoms: C_21  and  C_22
REMARK    7  A    between atoms: C_22  and  C_23
REMARK    8  A    between atoms: C_22  and  C_24
REMARK                            x       y       z     vdW  Elec       q    Type
REMARK                         _______ _______ _______ _____ _____    ______ ____
ROOT
ATOM      1  C   UNL     1       0.925  -1.454  -2.077  0.00  0.00    +0.000 A 
ATOM      2  C   UNL     1       0.445  -2.645  -2.729  0.00  0.00    +0.000 A 
ATOM      3  C   UNL     1      -0.383  -3.577  -2.007  0.00  0.00    +0.000 A 
ATOM      4  C   UNL     1      -0.863  -4.768  -2.659  0.00  0.00    +0.000 A 
ATOM      5  C   UNL     1      -0.515  -5.027  -4.033  0.00  0.00    +0.000 A 
ATOM      6  C   UNL     1      -0.995  -6.218  -4.685  0.00  0.00    +0.000 A 
ATOM      7  C   UNL     1      -1.823  -7.150  -3.963  0.00  0.00    +0.000 A 
ATOM      8  N   UNL     1      -2.160  -6.899  -2.635  0.00  0.00    +0.000 NA
ATOM      9  N   UNL     1       0.286  -4.126  -4.730  0.00  0.00    +0.000 N 
ENDROOT
BRANCH   7  10
ATOM     10  C   UNL     1      -2.330  -8.407  -4.651  0.00  0.00    +0.000 C 
ATOM     11  C   UNL     1      -1.823  -9.631  -3.907  0.00  0.00    +0.000 C 
ATOM     12  C   UNL     1      -3.850  -8.407  -4.651  0.00  0.00    +0.000 C 
ENDBRANCH   7  10
BRANCH   1  14
ATOM     13  C   UNL     1       1.055  -0.024  -0.080  0.00  0.00    +0.000 C 
ATOM     14  O   UNL     1       0.582  -1.198  -0.723  0.00  0.00    +0.000 OA
ENDBRANCH   1  14
BRANCH   4  15
ATOM     15  C   UNL     1      -1.737  -5.751  -1.898  0.00  0.00    +0.000 C 
ATOM     16  O   UNL     1      -2.161  -6.802  -2.473  0.00  0.00    +0.000 OA
BRANCH  15  17
ATOM     17  N   UNL     1      -2.092  -5.487  -0.496  0.00  0.00    +0.000 NA
ATOM     18  C   UNL     1      -2.848  -6.338   0.163  0.00  0.00    +0.000 A 
ATOM     19  C   UNL     1      -3.196  -6.079   1.536  0.00  0.00    +0.000 A 
ATOM     20 CL   UNL     1      -2.603  -4.607   2.342  0.00  0.00    +0.000 Cl
ATOM     21  C   UNL     1      -4.024  -7.011   2.257  0.00  0.00    +0.000 A 
ATOM     22  N   UNL     1      -4.489  -8.162   1.627  0.00  0.00    +0.000 N 
ATOM     23  C   UNL     1      -4.152  -8.413   0.299  0.00  0.00    +0.000 A 
ATOM     24  C   UNL     1      -3.328  -7.529  -0.489  0.00  0.00    +0.000 A 
ATOM     25 CL   UNL     1      -2.898  -7.849  -2.187  0.00  0.00    +0.000 Cl
BRANCH  22  26
ATOM     26  O   UNL     1      -5.276  -9.049   2.313  0.00  0.00    +0.000 OA
ATOM     27  H   UNL     1      -5.518  -8.869   3.266  0.00  0.00    +0.000 HD
ENDBRANCH  22  26
ENDBRANCH  15  17
ENDBRANCH   4  15
TORSDOF 5
