REMARK  Name = 
REMARK  9 active torsions:
REMARK  status: ('A' for Active; 'I' for Inactive)
REMARK    1  A    between atoms: C_1  and  C_2
REMARK    2  A    between atoms: C_5  and  O_6
REMARK    3  A    between atoms: O_6  and  C_7
REMARK    4  A    between atoms: C_7  and  C_8
REMARK    5  A    between atoms: N_10  and  N_11
REMARK    6  A    between atoms: N_11  and  C_12
REMARK    7  A    between atoms: C_12  and  N_14
REMARK    8  A    between atoms: C_15  and  C_17
REMARK    9  A    between atoms: C_22  and  C_23
REMARK                            x       y       z     vdW  Elec       q    Type
REMARK                         _______ _______ _______ _____ _____    ______ ____
ROOT
ATOM      1  C   UNL     1       2.202  -1.403  -4.010  0.00  0.00    +0.000 C 
ATOM      2  O   UNL     1       2.054  -0.300  -3.397  0.00  0.00    +0.000 OA
ATOM      3  N   UNL     1       1.230  -1.810  -5.035  0.00  0.00    +0.000 N 
ATOM      4  H   UNL     1       0.437  -1.207  -5.254  0.00  0.00    +0.000 HD
ENDROOT
BRANCH   3   5
ATOM      5  N   UNL     1       1.396  -3.042  -5.721  0.00  0.00    +0.000 N 
ATOM      6  H   UNL     1       2.189  -3.645  -5.502  0.00  0.00    +0.000 HD
BRANCH   5   7
ATOM      7  C   UNL     1       0.424  -3.450  -6.746  0.00  0.00    +0.000 C 
ATOM      8  S   UNL     1       0.613  -4.856  -7.528  0.00  0.00    +0.000 S 
BRANCH   7   9
ATOM      9  N   UNL     1      -0.719  -2.581  -7.061  0.00  0.00    +0.000 N 
ATOM     10  C   UNL     1      -0.891  -1.306  -6.351  0.00  0.00    +0.000 C 
ATOM     11  O   UNL     1      -1.879  -0.555  -6.624  0.00  0.00    +0.000 OA
ATOM     12  H   UNL     1      -1.393  -2.864  -7.772  0.00  0.00    +0.000 HD
BRANCH  10  13
ATOM     13  C   UNL     1       0.114  -0.884  -5.292  0.00  0.00    +0.000 A 
ATOM     14  C   UNL     1      -0.054   0.366  -4.596  0.00  0.00    +0.000 A 
ATOM     15  C   UNL     1      -1.174   1.217  -4.905  0.00  0.00    +0.000 A 
ATOM     16  C   UNL     1      -1.342   2.467  -4.210  0.00  0.00    +0.000 A 
ATOM     17  S   UNL     1       1.448  -1.898  -4.924  0.00  0.00    +0.000 S 
ENDBRANCH  10  13
ENDBRANCH   7   9
ENDBRANCH   5   7
ENDBRANCH   3   5
BRANCH   1  18
ATOM     18  C   UNL     1       3.384  -2.301  -3.684  0.00  0.00    +0.000 C 
BRANCH  18  19
ATOM     19  O   UNL     1       2.911  -3.559  -3.227  0.00  0.00    +0.000 OA
BRANCH  19  24
ATOM     20  C   UNL     1       1.077   0.045   0.045  0.00  0.00    +0.000 C 
ATOM     21  C   UNL     1       0.571  -1.302   0.534  0.00  0.00    +0.000 A 
ATOM     22  C   UNL     1       0.919  -2.504  -0.179  0.00  0.00    +0.000 A 
ATOM     23  C   UNL     1       1.747  -2.430  -1.355  0.00  0.00    +0.000 A 
ATOM     24  C   UNL     1       2.094  -3.632  -2.068  0.00  0.00    +0.000 A 
ATOM     25  C   UNL     1       1.614  -4.908  -1.604  0.00  0.00    +0.000 A 
ATOM     26  C   UNL     1       1.982  -6.177  -2.356  0.00  0.00    +0.000 C 
ATOM     27  C   UNL     1      -0.257  -1.376   1.710  0.00  0.00    +0.000 A 
ENDBRANCH  19  24
ENDBRANCH  18  19
ENDBRANCH   1  18
TORSDOF 7
