REMARK  Name = 
REMARK  6 active torsions:
REMARK  status: ('A' for Active; 'I' for Inactive)
REMARK    1  A    between atoms: C_2  and  C_17
REMARK    2  A    between atoms: N_3  and  O_4
REMARK    3  A    between atoms: O_4  and  C_5
REMARK    4  A    between atoms: C_5  and  C_7
REMARK    5  A    between atoms: C_7  and  C_8
REMARK    6  A    between atoms: C_11  and  N_12
REMARK                            x       y       z     vdW  Elec       q    Type
REMARK                         _______ _______ _______ _____ _____    ______ ____
ROOT
ATOM      1  O   UNL     1      -1.828   0.013  -0.046  0.00  0.00    +0.000 OA
ENDROOT
BRANCH   1   4
ATOM      2  N   UNL     1       0.908  -0.009   0.038  0.00  0.00    +0.000 N 
ATOM      3  C   UNL     1       0.173   0.316  -1.193  0.00  0.00    +0.000 C 
ATOM      4  N   UNL     1      -1.143   0.316  -1.193  0.00  0.00    +0.000 NA
ATOM      5  H   UNL     1       0.398  -0.235   0.892  0.00  0.00    +0.000 HD
ATOM      6  H   UNL     1       1.928  -0.009   0.038  0.00  0.00    +0.000 HD
BRANCH   3   7
ATOM      7  C   UNL     1       0.933   0.653  -2.465  0.00  0.00    +0.000 A 
ATOM      8  C   UNL     1       0.213   0.971  -3.671  0.00  0.00    +0.000 A 
ATOM      9  C   UNL     1      -1.227   0.971  -3.671  0.00  0.00    +0.000 A 
ATOM     10  C   UNL     1      -1.947   1.290  -4.877  0.00  0.00    +0.000 A 
ATOM     11  C   UNL     1      -3.388   1.290  -4.877  0.00  0.00    +0.000 A 
ATOM     12  N   UNL     1       2.326   0.653  -2.465  0.00  0.00    +0.000 NA
ENDBRANCH   3   7
ENDBRANCH   1   4
BRANCH   1  13
ATOM     13  C   UNL     1      -3.248   0.013  -0.046  0.00  0.00    +0.000 C 
ATOM     14  O   UNL     1      -3.883   0.294  -1.110  0.00  0.00    +0.000 OA
BRANCH  13  15
ATOM     15  C   UNL     1      -4.008  -0.324   1.227  0.00  0.00    +0.000 C 
BRANCH  15  16
ATOM     16  C   UNL     1      -3.640  -1.727   1.680  0.00  0.00    +0.000 A 
ATOM     17  C   UNL     1      -3.893  -2.852   0.817  0.00  0.00    +0.000 A 
ATOM     18  C   UNL     1      -4.493  -2.647  -0.476  0.00  0.00    +0.000 A 
ATOM     19  C   UNL     1      -4.745  -3.771  -1.340  0.00  0.00    +0.000 A 
ATOM     20  C   UNL     1      -4.397  -5.101  -0.910  0.00  0.00    +0.000 A 
ATOM     21  C   UNL     1      -3.040  -1.933   2.973  0.00  0.00    +0.000 A 
BRANCH  19  22
ATOM     22  N   UNL     1      -5.357  -3.562  -2.660  0.00  0.00    +0.000 N 
ATOM     23  O   UNL     1      -5.572  -4.520  -3.395  0.00  0.00    +0.000 OA
ATOM     24  O   UNL     1      -5.688  -2.297  -3.068  0.00  0.00    +0.000 OA
ENDBRANCH  19  22
ENDBRANCH  15  16
ENDBRANCH  13  15
ENDBRANCH   1  13
TORSDOF 6
