REMARK  Name = 
REMARK  9 active torsions:
REMARK  status: ('A' for Active; 'I' for Inactive)
REMARK    1  A    between atoms: C_1  and  C_2
REMARK    2  A    between atoms: C_2  and  C_3
REMARK    3  A    between atoms: C_3  and  O_4
REMARK    4  A    between atoms: O_4  and  C_5
REMARK    5  A    between atoms: C_8  and  C_9
REMARK    6  A    between atoms: N_11  and  N_12
REMARK    7  A    between atoms: N_12  and  C_13
REMARK    8  A    between atoms: C_13  and  N_15
REMARK    9  A    between atoms: C_16  and  C_18
REMARK                            x       y       z     vdW  Elec       q    Type
REMARK                         _______ _______ _______ _____ _____    ______ ____
ROOT
ATOM      1  C   UNL     1      -1.701   6.413   2.517  0.00  0.00    +0.000 C 
ATOM      2  O   UNL     1      -2.124   7.592   2.305  0.00  0.00    +0.000 OA
ATOM      3  N   UNL     1      -2.056   5.717   3.762  0.00  0.00    +0.000 N 
ATOM      4  H   UNL     1      -2.642   6.180   4.456  0.00  0.00    +0.000 HD
ENDROOT
BRANCH   1   8
ATOM      5  C   UNL     1       0.961   2.395   0.983  0.00  0.00    +0.000 A 
ATOM      6  C   UNL     1       0.481   3.731   0.743  0.00  0.00    +0.000 A 
ATOM      7  C   UNL     1      -0.347   4.386   1.723  0.00  0.00    +0.000 A 
ATOM      8  C   UNL     1      -0.827   5.722   1.483  0.00  0.00    +0.000 A 
ATOM      9  C   UNL     1      -0.479   6.404   0.263  0.00  0.00    +0.000 A 
ATOM     10  C   UNL     1       1.789   1.740   0.003  0.00  0.00    +0.000 A 
BRANCH   5  11
ATOM     11  O   UNL     1       0.618   1.722   2.186  0.00  0.00    +0.000 OA
BRANCH  11  12
ATOM     12  C   UNL     1       1.092   0.405   2.422  0.00  0.00    +0.000 C 
BRANCH  12  14
ATOM     13  C   UNL     1       1.092  -0.034  -0.021  0.00  0.00    +0.000 C 
ATOM     14  C   UNL     1       0.585  -0.520   1.328  0.00  0.00    +0.000 C 
ENDBRANCH  12  14
ENDBRANCH  11  12
ENDBRANCH   5  11
ENDBRANCH   1   8
BRANCH   3  15
ATOM     15  N   UNL     1      -1.582   4.399   3.999  0.00  0.00    +0.000 N 
ATOM     16  H   UNL     1      -0.996   3.936   3.305  0.00  0.00    +0.000 HD
BRANCH  15  17
ATOM     17  C   UNL     1      -1.938   3.703   5.244  0.00  0.00    +0.000 C 
ATOM     18  S   UNL     1      -1.398   2.200   5.514  0.00  0.00    +0.000 S 
BRANCH  17  19
ATOM     19  N   UNL     1      -2.783   4.371   6.244  0.00  0.00    +0.000 N 
ATOM     20  C   UNL     1      -3.273   5.735   5.999  0.00  0.00    +0.000 C 
ATOM     21  O   UNL     1      -4.003   6.313   6.864  0.00  0.00    +0.000 OA
ATOM     22  H   UNL     1      -3.029   3.888   7.108  0.00  0.00    +0.000 HD
BRANCH  20  23
ATOM     23  C   UNL     1      -2.905   6.455   4.712  0.00  0.00    +0.000 A 
ATOM     24  C   UNL     1      -3.386   7.791   4.472  0.00  0.00    +0.000 A 
ATOM     25  C   UNL     1      -4.214   8.446   5.452  0.00  0.00    +0.000 A 
ATOM     26  C   UNL     1      -4.694   9.782   5.212  0.00  0.00    +0.000 A 
ATOM     27  O   UNL     1      -2.132   5.843   3.796  0.00  0.00    +0.000 OA
ENDBRANCH  20  23
ENDBRANCH  17  19
ENDBRANCH  15  17
ENDBRANCH   3  15
TORSDOF 8
