REMARK  Name = 
REMARK  9 active torsions:
REMARK  status: ('A' for Active; 'I' for Inactive)
REMARK    1  A    between atoms: C_1  and  N_2
REMARK    2  A    between atoms: C_3  and  C_5
REMARK    3  A    between atoms: C_7  and  C_8
REMARK    4  A    between atoms: C_14  and  C_16
REMARK    5  A    between atoms: C_21  and  O_22
REMARK    6  A    between atoms: O_22  and  C_23
REMARK    7  A    between atoms: C_23  and  C_24
REMARK    8  A    between atoms: N_27  and  C_28
REMARK    9  A    between atoms: C_28  and  C_29
REMARK                            x       y       z     vdW  Elec       q    Type
REMARK                         _______ _______ _______ _____ _____    ______ ____
ROOT
ATOM      1  C   UNL     1      -0.791  -1.582   1.781  0.00  0.00    +0.000 A 
ATOM      2  S   UNL     1      -1.777  -2.531   2.815  0.00  0.00    +0.000 S 
ATOM      3  C   UNL     1      -2.191  -1.949   4.374  0.00  0.00    +0.000 A 
ATOM      4  N   UNL     1      -2.992  -2.720   5.215  0.00  0.00    +0.000 NA
ATOM      5  C   UNL     1      -0.311  -0.298   2.222  0.00  0.00    +0.000 A 
ENDROOT
BRANCH   3   6
ATOM      6  C   UNL     1      -1.685  -0.594   4.840  0.00  0.00    +0.000 A 
ATOM      7  C   UNL     1      -0.857   0.202   3.971  0.00  0.00    +0.000 A 
ATOM      8  C   UNL     1      -0.509  -0.286   2.662  0.00  0.00    +0.000 A 
ATOM      9  N   UNL     1       0.292   0.484   1.822  0.00  0.00    +0.000 NA
ATOM     10  C   UNL     1       0.756   1.726   2.248  0.00  0.00    +0.000 A 
ATOM     11  N   UNL     1       1.601   2.539   1.361  0.00  0.00    +0.000 N 
ATOM     12  C   UNL     1       1.957   2.041   0.025  0.00  0.00    +0.000 C 
ATOM     13  O   UNL     1       2.687   2.744  -0.742  0.00  0.00    +0.000 OA
ATOM     14  C   UNL     1      -2.033  -0.106   6.149  0.00  0.00    +0.000 A 
ATOM     15  H   UNL     1       1.941   3.449   1.674  0.00  0.00    +0.000 HD
BRANCH  12  16
ATOM     16  C   UNL     1       1.450   0.686  -0.441  0.00  0.00    +0.000 C 
ATOM     17  C   UNL     1      -0.070   0.686  -0.441  0.00  0.00    +0.000 C 
ATOM     18  C   UNL     1       1.957  -0.395   0.500  0.00  0.00    +0.000 C 
ENDBRANCH  12  16
ENDBRANCH   3   6
BRANCH   1  21
ATOM     19  C   UNL     1       0.911   0.026  -0.038  0.00  0.00    +0.000 C 
ATOM     20  N   UNL     1       0.421  -1.285  -0.488  0.00  0.00    +0.000 N 
ATOM     21  C   UNL     1      -0.424  -2.097   0.398  0.00  0.00    +0.000 C 
ATOM     22  O   UNL     1      -0.847  -3.231   0.009  0.00  0.00    +0.000 OA
ATOM     23  H   UNL     1       0.668  -1.630  -1.416  0.00  0.00    +0.000 HD
ENDBRANCH   1  21
BRANCH   5  24
ATOM     24  O   UNL     1       0.505   0.487   1.365  0.00  0.00    +0.000 OA
BRANCH  24  25
ATOM     25  C   UNL     1       0.979   1.753   1.800  0.00  0.00    +0.000 C 
BRANCH  25  26
ATOM     26  C   UNL     1      -0.203   2.657   2.110  0.00  0.00    +0.000 C 
ATOM     27  C   UNL     1       0.303   4.012   2.575  0.00  0.00    +0.000 C 
ATOM     28  C   UNL     1       1.148   4.641   1.479  0.00  0.00    +0.000 C 
ATOM     29  N   UNL     1       0.331   4.812   0.269  0.00  0.00    +0.000 NA
ATOM     30  C   UNL     1      -0.159   3.502  -0.181  0.00  0.00    +0.000 C 
ATOM     31  C   UNL     1      -1.048   2.028   3.206  0.00  0.00    +0.000 C 
BRANCH  29  32
ATOM     32  C   UNL     1       1.148   5.421  -0.791  0.00  0.00    +0.000 C 
BRANCH  32  33
ATOM     33  C   UNL     1       2.330   4.517  -1.101  0.00  0.00    +0.000 A 
ATOM     34  C   UNL     1       3.282   4.197  -0.069  0.00  0.00    +0.000 A 
ATOM     35  C   UNL     1       3.114   4.733   1.257  0.00  0.00    +0.000 A 
ATOM     36  C   UNL     1       4.066   4.413   2.289  0.00  0.00    +0.000 A 
ATOM     37  C   UNL     1       3.898   4.949   3.615  0.00  0.00    +0.000 A 
ATOM     38  C   UNL     1       2.498   3.981  -2.428  0.00  0.00    +0.000 A 
ATOM     39  F   UNL     1       1.619   4.277  -3.381  0.00  0.00    +0.000 F 
ENDBRANCH  32  33
ENDBRANCH  29  32
ENDBRANCH  25  26
ENDBRANCH  24  25
ENDBRANCH   5  24
TORSDOF 8
