REMARK  Name = 
REMARK  15 active torsions:
REMARK  status: ('A' for Active; 'I' for Inactive)
REMARK    1  A    between atoms: C_1  and  O_2
REMARK    2  A    between atoms: O_2  and  C_3
REMARK    3  A    between atoms: C_4  and  C_5
REMARK    4  A    between atoms: C_6  and  O_7
REMARK    5  A    between atoms: C_8  and  C_9
REMARK    6  A    between atoms: C_9  and  C_10
REMARK    7  A    between atoms: C_11  and  O_12
REMARK    8  A    between atoms: C_14  and  O_15
REMARK    9  A    between atoms: C_19  and  C_20
REMARK   10  A    between atoms: C_23  and  O_24
REMARK   11  A    between atoms: C_25  and  O_26
REMARK   12  A    between atoms: C_28  and  O_29
REMARK   13  A    between atoms: C_31  and  O_32
REMARK   14  A    between atoms: C_33  and  C_34
REMARK   15  A    between atoms: C_34  and  C_35
REMARK                            x       y       z     vdW  Elec       q    Type
REMARK                         _______ _______ _______ _____ _____    ______ ____
ROOT
ATOM      1  C   UNL     1      -1.951  -4.098   5.520  0.00  0.00    +0.000 A 
ATOM      2  C   UNL     1      -2.793  -4.354   4.380  0.00  0.00    +0.000 A 
ATOM      3  C   UNL     1      -4.065  -5.006   4.556  0.00  0.00    +0.000 A 
ATOM      4  C   UNL     1      -4.495  -5.401   5.872  0.00  0.00    +0.000 A 
ATOM      5  C   UNL     1      -3.653  -5.145   7.012  0.00  0.00    +0.000 A 
ATOM      6  C   UNL     1      -5.594  -7.523   7.469  0.00  0.00    +0.000 A 
ATOM      7  O   UNL     1      -6.673  -6.646   7.755  0.00  0.00    +0.000 OA
ATOM      8  C   UNL     1      -6.473  -5.241   7.725  0.00  0.00    +0.000 C 
ATOM      9  C   UNL     1      -5.410  -4.858   8.742  0.00  0.00    +0.000 C 
ATOM     10  C   UNL     1      -4.107  -5.563   8.402  0.00  0.00    +0.000 C 
ENDROOT
BRANCH   8  11
ATOM     11  C   UNL     1      -6.019  -4.823   6.336  0.00  0.00    +0.000 A 
ATOM     12  C   UNL     1      -6.800  -5.042   5.145  0.00  0.00    +0.000 A 
ATOM     13  C   UNL     1      -8.102  -5.650   5.239  0.00  0.00    +0.000 A 
ATOM     14  C   UNL     1      -8.882  -5.869   4.048  0.00  0.00    +0.000 A 
ATOM     15  C   UNL     1      -8.360  -5.480   2.764  0.00  0.00    +0.000 A 
ATOM     16  C   UNL     1      -4.717  -4.215   6.242  0.00  0.00    +0.000 A 
BRANCH  14  17
ATOM     17  O   UNL     1     -10.166  -6.468   4.141  0.00  0.00    +0.000 OA
ATOM     18  H   UNL     1     -10.528  -6.738   5.033  0.00  0.00    +0.000 HD
ENDBRANCH  14  17
BRANCH  15  19
ATOM     19  O   UNL     1      -9.129  -5.695   1.590  0.00  0.00    +0.000 OA
ATOM     20  H   UNL     1      -8.767  -5.425   0.698  0.00  0.00    +0.000 HD
ENDBRANCH  15  19
ENDBRANCH   8  11
BRANCH   2  21
ATOM     21  O   UNL     1      -2.369  -3.964   3.082  0.00  0.00    +0.000 OA
ATOM     22  H   UNL     1      -1.485  -3.512   2.960  0.00  0.00    +0.000 HD
ENDBRANCH   2  21
BRANCH   4  23
ATOM     23  O   UNL     1      -5.749  -6.044   6.046  0.00  0.00    +0.000 OA
ATOM     24  H   UNL     1      -6.334  -6.222   5.255  0.00  0.00    +0.000 HD
ENDBRANCH   4  23
BRANCH   9  25
ATOM     25  O   UNL     1      -5.834  -5.248  10.040  0.00  0.00    +0.000 OA
ATOM     26  H   UNL     1      -5.975  -6.238  10.061  0.00  0.00    +0.000 HD
ENDBRANCH   9  25
BRANCH   1  27
ATOM     27  C   UNL     1      -0.608  -3.410   5.334  0.00  0.00    +0.000 C 
BRANCH  27  32
ATOM     28  C   UNL     1       0.878  -1.781   1.571  0.00  0.00    +0.000 A 
ATOM     29  C   UNL     1       0.398  -2.338   2.809  0.00  0.00    +0.000 A 
ATOM     30  C   UNL     1      -0.476  -1.503   3.731  0.00  0.00    +0.000 C 
ATOM     31  C   UNL     1       0.746  -3.687   3.174  0.00  0.00    +0.000 A 
ATOM     32  C   UNL     1       0.266  -4.245   4.412  0.00  0.00    +0.000 A 
ATOM     33  C   UNL     1       0.614  -5.594   4.777  0.00  0.00    +0.000 A 
ATOM     34  C   UNL     1       1.706  -2.572   0.698  0.00  0.00    +0.000 A 
BRANCH  34  35
ATOM     35  C   UNL     1       2.212  -1.984  -0.608  0.00  0.00    +0.000 C 
ATOM     36  C   UNL     1       1.845  -0.560  -0.994  0.00  0.00    +0.000 C 
ATOM     37  O   UNL     1       2.943  -2.682  -1.379  0.00  0.00    +0.000 OA
ENDBRANCH  34  35
BRANCH  28  39
ATOM     38  C   UNL     1       1.008   0.099  -0.009  0.00  0.00    +0.000 C 
ATOM     39  O   UNL     1       0.535  -0.451   1.211  0.00  0.00    +0.000 OA
ENDBRANCH  28  39
BRANCH  31  40
ATOM     40  O   UNL     1       1.562  -4.468   2.313  0.00  0.00    +0.000 OA
ATOM     41  H   UNL     1       1.895  -4.081   1.454  0.00  0.00    +0.000 HD
ENDBRANCH  31  40
BRANCH  33  42
ATOM     42  O   UNL     1       0.140  -6.144   5.998  0.00  0.00    +0.000 OA
ATOM     43  H   UNL     1       0.382  -7.081   6.251  0.00  0.00    +0.000 HD
ENDBRANCH  33  42
ENDBRANCH  27  32
ENDBRANCH   1  27
TORSDOF 12
