REMARK  Name = 
REMARK  1 active torsions:
REMARK  status: ('A' for Active; 'I' for Inactive)
REMARK    1  A    between atoms: C_14  and  C_15
REMARK                            x       y       z     vdW  Elec       q    Type
REMARK                         _______ _______ _______ _____ _____    ______ ____
ROOT
ATOM      1  O   UNL     1       1.024   0.044   0.086  0.00  0.00    +0.000 OA
ATOM      2  C   UNL     1       2.295   0.044   0.086  0.00  0.00    +0.000 C 
ATOM      3  C   UNL     1       3.055   0.390   1.356  0.00  0.00    +0.000 A 
ATOM      4  C   UNL     1       4.495   0.390   1.356  0.00  0.00    +0.000 A 
ATOM      5  C   UNL     1       5.216   0.063   0.153  0.00  0.00    +0.000 A 
ATOM      6  C   UNL     1       6.656   0.063   0.153  0.00  0.00    +0.000 A 
ATOM      7  C   UNL     1       7.376  -0.265  -1.051  0.00  0.00    +0.000 A 
ATOM      8  C   UNL     1       2.335   0.717   2.560  0.00  0.00    +0.000 A 
ATOM      9  S   UNL     1       0.525   0.717   2.560  0.00  0.00    +0.000 S 
ATOM     10  O   UNL     1       0.015   1.734   1.536  0.00  0.00    +0.000 OA
ATOM     11  O   UNL     1       0.015  -0.678   2.192  0.00  0.00    +0.000 OA
ATOM     12  C   UNL     1      -0.078   1.165   4.207  0.00  0.00    +0.000 A 
ATOM     13  C   UNL     1      -1.494   1.234   4.461  0.00  0.00    +0.000 A 
ATOM     14  C   UNL     1      -2.430   0.947   3.404  0.00  0.00    +0.000 A 
ATOM     15  C   UNL     1      -1.950   0.591   2.094  0.00  0.00    +0.000 A 
ATOM     16  C   UNL     1      -0.534   0.521   1.840  0.00  0.00    +0.000 A 
ATOM     17  C   UNL     1       3.055  -0.301  -1.184  0.00  0.00    +0.000 A 
ENDROOT
BRANCH  14  18
ATOM     18  C   UNL     1      -3.924   1.020   3.672  0.00  0.00    +0.000 C 
ATOM     19  O   UNL     1      -4.750   0.766   2.740  0.00  0.00    +0.000 OA
ATOM     20  N   UNL     1      -4.414   1.383   5.010  0.00  0.00    +0.000 N 
ATOM     21  C   UNL     1      -3.459   1.677   6.088  0.00  0.00    +0.000 A 
ATOM     22  C   UNL     1      -2.043   1.608   5.834  0.00  0.00    +0.000 A 
ATOM     23  C   UNL     1      -1.563   1.251   4.524  0.00  0.00    +0.000 A 
ATOM     24  C   UNL     1      -0.147   1.182   4.270  0.00  0.00    +0.000 A 
ATOM     25  C   UNL     1       0.333   0.826   2.959  0.00  0.00    +0.000 A 
ATOM     26  N   UNL     1      -3.923   2.021   7.355  0.00  0.00    +0.000 NA
ATOM     27  C   UNL     1      -5.860   1.454   5.269  0.00  0.00    +0.000 A 
ATOM     28  C   UNL     1      -6.340   1.810   6.579  0.00  0.00    +0.000 A 
ATOM     29  C   UNL     1      -5.404   2.098   7.635  0.00  0.00    +0.000 A 
ATOM     30  C   UNL     1      -5.884   2.454   8.946  0.00  0.00    +0.000 A 
ATOM     31  C   UNL     1      -4.948   2.741  10.002  0.00  0.00    +0.000 A 
ATOM     32  N   UNL     1      -6.765   1.176   4.247  0.00  0.00    +0.000 NA
ENDBRANCH  14  18
TORSDOF 1
