MODEL 1
REMARK VINA RESULT:    -7.603      0.000      0.000
REMARK INTER + INTRA:          -9.946
REMARK INTER:                 -10.270
REMARK INTRA:                   0.324
REMARK UNBOUND:                 0.324
REMARK  Name = 
REMARK  8 active torsions:
REMARK  status: ('A' for Active; 'I' for Inactive)
REMARK    1  A    between atoms: C_1  and  O_2
REMARK    2  A    between atoms: O_2  and  C_3
REMARK    3  A    between atoms: C_6  and  C_7
REMARK    4  A    between atoms: N_9  and  C_10
REMARK    5  A    between atoms: C_10  and  N_12
REMARK    6  A    between atoms: N_12  and  N_13
REMARK    7  A    between atoms: C_14  and  C_16
REMARK    8  A    between atoms: C_20  and  C_21
REMARK                            x       y       z     vdW  Elec       q    Type
REMARK                         _______ _______ _______ _____ _____    ______ ____
ROOT
ATOM      1  C   UNL     1      37.350  12.802  42.061  0.00  0.00    +0.000 C 
ATOM      2  S   UNL     1      36.379  13.278  43.268  0.00  0.00    +0.000 S 
ENDROOT
BRANCH   1   5
ATOM      3  C   UNL     1      39.671  13.847  41.973  0.00  0.00    +0.000 C 
ATOM      4  O   UNL     1      40.488  14.669  41.452  0.00  0.00    +0.000 OA
ATOM      5  N   UNL     1      38.295  13.754  41.460  0.00  0.00    +0.000 N 
ATOM      6  H   UNL     1      37.998  14.350  40.689  0.00  0.00    +0.000 HD
BRANCH   3  10
ATOM      7  C   UNL     1      39.895  12.843  46.925  0.00  0.00    +0.000 A 
ATOM      8  C   UNL     1      40.215  12.479  45.568  0.00  0.00    +0.000 A 
ATOM      9  C   UNL     1      39.794  13.321  44.479  0.00  0.00    +0.000 A 
ATOM     10  C   UNL     1      40.114  12.958  43.123  0.00  0.00    +0.000 A 
ATOM     11  C   UNL     1      40.855  11.752  42.856  0.00  0.00    +0.000 A 
ATOM     12  C   UNL     1      40.316  12.000  48.014  0.00  0.00    +0.000 A 
BRANCH   7  14
ATOM     13  C   UNL     1      37.967  13.975  47.950  0.00  0.00    +0.000 C 
ATOM     14  O   UNL     1      39.165  14.031  47.188  0.00  0.00    +0.000 OA
ENDBRANCH   7  14
ENDBRANCH   3  10
ENDBRANCH   1   5
BRANCH   1  15
ATOM     15  N   UNL     1      37.285  11.419  41.569  0.00  0.00    +0.000 N 
ATOM     16  H   UNL     1      38.114  10.827  41.598  0.00  0.00    +0.000 HD
BRANCH  15  17
ATOM     17  N   UNL     1      36.065  10.907  41.050  0.00  0.00    +0.000 N 
ATOM     18  C   UNL     1      35.468   9.698  41.634  0.00  0.00    +0.000 C 
ATOM     19  O   UNL     1      34.377   9.240  41.170  0.00  0.00    +0.000 OA
ATOM     20  H   UNL     1      35.604  11.380  40.272  0.00  0.00    +0.000 HD
BRANCH  18  21
ATOM     21  C   UNL     1      36.156   8.994  42.793  0.00  0.00    +0.000 A 
ATOM     22  C   UNL     1      36.300   7.561  42.781  0.00  0.00    +0.000 A 
ATOM     23  C   UNL     1      35.792   6.795  41.672  0.00  0.00    +0.000 A 
ATOM     24  C   UNL     1      35.935   5.363  41.661  0.00  0.00    +0.000 A 
ATOM     25  C   UNL     1      35.427   4.597  40.552  0.00  0.00    +0.000 A 
ATOM     26  C   UNL     1      34.740   5.301  39.394  0.00  0.00    +0.000 C 
ATOM     27  C   UNL     1      36.664   9.760  43.902  0.00  0.00    +0.000 A 
ENDBRANCH  18  21
ENDBRANCH  15  17
ENDBRANCH   1  15
TORSDOF 6
ENDMDL
MODEL 2
REMARK VINA RESULT:    -7.382     24.427     27.090
REMARK INTER + INTRA:          -9.647
REMARK INTER:                  -8.526
REMARK INTRA:                  -1.121
REMARK UNBOUND:                 0.324
REMARK  Name = 
REMARK  8 active torsions:
REMARK  status: ('A' for Active; 'I' for Inactive)
REMARK    1  A    between atoms: C_1  and  O_2
REMARK    2  A    between atoms: O_2  and  C_3
REMARK    3  A    between atoms: C_6  and  C_7
REMARK    4  A    between atoms: N_9  and  C_10
REMARK    5  A    between atoms: C_10  and  N_12
REMARK    6  A    between atoms: N_12  and  N_13
REMARK    7  A    between atoms: C_14  and  C_16
REMARK    8  A    between atoms: C_20  and  C_21
REMARK                            x       y       z     vdW  Elec       q    Type
REMARK                         _______ _______ _______ _____ _____    ______ ____
ROOT
ATOM      1  C   UNL     1      33.209 -10.841  27.381  0.00  0.00    +0.000 C 
ATOM      2  S   UNL     1      33.461 -12.376  26.927  0.00  0.00    +0.000 S 
ENDROOT
BRANCH   1   5
ATOM      3  C   UNL     1      34.201  -9.142  25.765  0.00  0.00    +0.000 C 
ATOM      4  O   UNL     1      35.067  -8.250  25.500  0.00  0.00    +0.000 OA
ATOM      5  N   UNL     1      34.211  -9.811  27.075  0.00  0.00    +0.000 N 
ATOM      6  H   UNL     1      34.913  -9.559  27.769  0.00  0.00    +0.000 HD
BRANCH   3  10
ATOM      7  C   UNL     1      29.507  -8.768  23.917  0.00  0.00    +0.000 A 
ATOM      8  C   UNL     1      30.835  -9.320  23.832  0.00  0.00    +0.000 A 
ATOM      9  C   UNL     1      31.827  -8.965  24.814  0.00  0.00    +0.000 A 
ATOM     10  C   UNL     1      33.154  -9.517  24.729  0.00  0.00    +0.000 A 
ATOM     11  C   UNL     1      33.489 -10.424  23.662  0.00  0.00    +0.000 A 
ATOM     12  C   UNL     1      28.515  -9.123  22.936  0.00  0.00    +0.000 A 
BRANCH   7  14
ATOM     13  C   UNL     1      27.877  -7.304  25.035  0.00  0.00    +0.000 C 
ATOM     14  O   UNL     1      29.177  -7.873  24.969  0.00  0.00    +0.000 OA
ENDBRANCH   7  14
ENDBRANCH   3  10
ENDBRANCH   1   5
BRANCH   1  15
ATOM     15  N   UNL     1      31.979 -10.481  28.099  0.00  0.00    +0.000 N 
ATOM     16  H   UNL     1      31.115 -10.316  27.583  0.00  0.00    +0.000 HD
BRANCH  15  17
ATOM     17  N   UNL     1      31.992 -10.362  29.515  0.00  0.00    +0.000 N 
ATOM     18  C   UNL     1      31.934  -9.033  30.142  0.00  0.00    +0.000 C 
ATOM     19  O   UNL     1      31.945  -8.927  31.408  0.00  0.00    +0.000 OA
ATOM     20  H   UNL     1      32.041 -11.199  30.096  0.00  0.00    +0.000 HD
BRANCH  18  21
ATOM     21  C   UNL     1      31.861  -7.787  29.275  0.00  0.00    +0.000 A 
ATOM     22  C   UNL     1      30.584  -7.303  28.817  0.00  0.00    +0.000 A 
ATOM     23  C   UNL     1      29.377  -8.000  29.181  0.00  0.00    +0.000 A 
ATOM     24  C   UNL     1      28.101  -7.516  28.723  0.00  0.00    +0.000 A 
ATOM     25  C   UNL     1      26.894  -8.212  29.087  0.00  0.00    +0.000 A 
ATOM     26  C   UNL     1      26.967  -9.458  29.955  0.00  0.00    +0.000 C 
ATOM     27  C   UNL     1      33.068  -7.090  28.911  0.00  0.00    +0.000 A 
ENDBRANCH  18  21
ENDBRANCH  15  17
ENDBRANCH   1  15
TORSDOF 6
ENDMDL
MODEL 3
REMARK VINA RESULT:    -7.362     24.480     26.842
REMARK INTER + INTRA:          -9.619
REMARK INTER:                  -7.865
REMARK INTRA:                  -1.754
REMARK UNBOUND:                 0.324
REMARK  Name = 
REMARK  8 active torsions:
REMARK  status: ('A' for Active; 'I' for Inactive)
REMARK    1  A    between atoms: C_1  and  O_2
REMARK    2  A    between atoms: O_2  and  C_3
REMARK    3  A    between atoms: C_6  and  C_7
REMARK    4  A    between atoms: N_9  and  C_10
REMARK    5  A    between atoms: C_10  and  N_12
REMARK    6  A    between atoms: N_12  and  N_13
REMARK    7  A    between atoms: C_14  and  C_16
REMARK    8  A    between atoms: C_20  and  C_21
REMARK                            x       y       z     vdW  Elec       q    Type
REMARK                         _______ _______ _______ _____ _____    ______ ____
ROOT
ATOM      1  C   UNL     1      30.704  -7.620  27.282  0.00  0.00    +0.000 C 
ATOM      2  S   UNL     1      31.843  -8.703  26.888  0.00  0.00    +0.000 S 
ENDROOT
BRANCH   1   5
ATOM      3  C   UNL     1      28.616  -7.574  25.826  0.00  0.00    +0.000 C 
ATOM      4  O   UNL     1      27.921  -7.022  24.916  0.00  0.00    +0.000 OA
ATOM      5  N   UNL     1      29.901  -6.982  26.230  0.00  0.00    +0.000 N 
ATOM      6  H   UNL     1      30.233  -6.130  25.779  0.00  0.00    +0.000 HD
BRANCH   3  10
ATOM      7  C   UNL     1      25.726  -9.890  29.271  0.00  0.00    +0.000 A 
ATOM      8  C   UNL     1      26.688  -9.969  28.202  0.00  0.00    +0.000 A 
ATOM      9  C   UNL     1      27.158  -8.765  27.566  0.00  0.00    +0.000 A 
ATOM     10  C   UNL     1      28.120  -8.844  26.497  0.00  0.00    +0.000 A 
ATOM     11  C   UNL     1      28.612 -10.127  26.065  0.00  0.00    +0.000 A 
ATOM     12  C   UNL     1      25.256 -11.093  29.907  0.00  0.00    +0.000 A 
BRANCH   7  14
ATOM     13  C   UNL     1      25.171  -8.322  31.083  0.00  0.00    +0.000 C 
ATOM     14  O   UNL     1      25.240  -8.625  29.697  0.00  0.00    +0.000 OA
ENDBRANCH   7  14
ENDBRANCH   3  10
ENDBRANCH   1   5
BRANCH   1  15
ATOM     15  N   UNL     1      30.476  -7.276  28.693  0.00  0.00    +0.000 N 
ATOM     16  H   UNL     1      29.620  -6.796  28.970  0.00  0.00    +0.000 HD
BRANCH  15  17
ATOM     17  N   UNL     1      31.450  -7.611  29.671  0.00  0.00    +0.000 N 
ATOM     18  C   UNL     1      31.192  -8.703  30.622  0.00  0.00    +0.000 C 
ATOM     19  O   UNL     1      32.063  -9.003  31.496  0.00  0.00    +0.000 OA
ATOM     20  H   UNL     1      32.328  -7.094  29.715  0.00  0.00    +0.000 HD
BRANCH  18  21
ATOM     21  C   UNL     1      29.883  -9.473  30.557  0.00  0.00    +0.000 A 
ATOM     22  C   UNL     1      29.816 -10.720  29.838  0.00  0.00    +0.000 A 
ATOM     23  C   UNL     1      30.989 -11.237  29.182  0.00  0.00    +0.000 A 
ATOM     24  C   UNL     1      30.921 -12.482  28.463  0.00  0.00    +0.000 A 
ATOM     25  C   UNL     1      32.095 -12.999  27.807  0.00  0.00    +0.000 A 
ATOM     26  C   UNL     1      33.404 -12.230  27.873  0.00  0.00    +0.000 C 
ATOM     27  C   UNL     1      28.709  -8.956  31.213  0.00  0.00    +0.000 A 
ENDBRANCH  18  21
ENDBRANCH  15  17
ENDBRANCH   1  15
TORSDOF 6
ENDMDL
MODEL 4
REMARK VINA RESULT:    -7.342     27.715     30.862
REMARK INTER + INTRA:          -9.593
REMARK INTER:                  -8.743
REMARK INTRA:                  -0.849
REMARK UNBOUND:                 0.324
REMARK  Name = 
REMARK  8 active torsions:
REMARK  status: ('A' for Active; 'I' for Inactive)
REMARK    1  A    between atoms: C_1  and  O_2
REMARK    2  A    between atoms: O_2  and  C_3
REMARK    3  A    between atoms: C_6  and  C_7
REMARK    4  A    between atoms: N_9  and  C_10
REMARK    5  A    between atoms: C_10  and  N_12
REMARK    6  A    between atoms: N_12  and  N_13
REMARK    7  A    between atoms: C_14  and  C_16
REMARK    8  A    between atoms: C_20  and  C_21
REMARK                            x       y       z     vdW  Elec       q    Type
REMARK                         _______ _______ _______ _____ _____    ______ ____
ROOT
ATOM      1  C   UNL     1      12.614   7.761  30.197  0.00  0.00    +0.000 C 
ATOM      2  S   UNL     1      14.151   7.753  29.682  0.00  0.00    +0.000 S 
ENDROOT
BRANCH   1   5
ATOM      3  C   UNL     1      11.858   5.686  31.463  0.00  0.00    +0.000 C 
ATOM      4  O   UNL     1      11.551   5.115  32.557  0.00  0.00    +0.000 OA
ATOM      5  N   UNL     1      12.259   7.101  31.461  0.00  0.00    +0.000 N 
ATOM      6  H   UNL     1      12.289   7.623  32.336  0.00  0.00    +0.000 HD
BRANCH   3  10
ATOM      7  C   UNL     1      14.078   2.684  28.050  0.00  0.00    +0.000 A 
ATOM      8  C   UNL     1      12.923   3.427  28.487  0.00  0.00    +0.000 A 
ATOM      9  C   UNL     1      12.966   4.165  29.723  0.00  0.00    +0.000 A 
ATOM     10  C   UNL     1      11.812   4.907  30.159  0.00  0.00    +0.000 A 
ATOM     11  C   UNL     1      10.614   4.911  29.360  0.00  0.00    +0.000 A 
ATOM     12  C   UNL     1      14.034   1.946  26.815  0.00  0.00    +0.000 A 
BRANCH   7  14
ATOM     13  C   UNL     1      16.528   2.549  28.215  0.00  0.00    +0.000 C 
ATOM     14  O   UNL     1      15.259   2.681  28.839  0.00  0.00    +0.000 OA
ENDBRANCH   7  14
ENDBRANCH   3  10
ENDBRANCH   1   5
BRANCH   1  15
ATOM     15  N   UNL     1      11.576   8.429  29.398  0.00  0.00    +0.000 N 
ATOM     16  H   UNL     1      10.846   8.970  29.859  0.00  0.00    +0.000 HD
BRANCH  15  17
ATOM     17  N   UNL     1      11.590   8.319  27.982  0.00  0.00    +0.000 N 
ATOM     18  C   UNL     1      11.060   9.412  27.154  0.00  0.00    +0.000 C 
ATOM     19  O   UNL     1      11.073   9.313  25.887  0.00  0.00    +0.000 OA
ATOM     20  H   UNL     1      11.969   7.481  27.539  0.00  0.00    +0.000 HD
BRANCH  18  21
ATOM     21  C   UNL     1      10.496  10.660  27.814  0.00  0.00    +0.000 A 
ATOM     22  C   UNL     1       9.108  10.706  28.197  0.00  0.00    +0.000 A 
ATOM     23  C   UNL     1       8.256   9.571  27.954  0.00  0.00    +0.000 A 
ATOM     24  C   UNL     1       6.868   9.618  28.336  0.00  0.00    +0.000 A 
ATOM     25  C   UNL     1       6.016   8.483  28.093  0.00  0.00    +0.000 A 
ATOM     26  C   UNL     1       6.581   7.235  27.433  0.00  0.00    +0.000 C 
ATOM     27  C   UNL     1      11.349  11.795  28.057  0.00  0.00    +0.000 A 
ENDBRANCH  18  21
ENDBRANCH  15  17
ENDBRANCH   1  15
TORSDOF 6
ENDMDL
MODEL 5
REMARK VINA RESULT:    -7.323     24.444     27.593
REMARK INTER + INTRA:          -9.567
REMARK INTER:                  -7.708
REMARK INTRA:                  -1.858
REMARK UNBOUND:                 0.324
REMARK  Name = 
REMARK  8 active torsions:
REMARK  status: ('A' for Active; 'I' for Inactive)
REMARK    1  A    between atoms: C_1  and  O_2
REMARK    2  A    between atoms: O_2  and  C_3
REMARK    3  A    between atoms: C_6  and  C_7
REMARK    4  A    between atoms: N_9  and  C_10
REMARK    5  A    between atoms: C_10  and  N_12
REMARK    6  A    between atoms: N_12  and  N_13
REMARK    7  A    between atoms: C_14  and  C_16
REMARK    8  A    between atoms: C_20  and  C_21
REMARK                            x       y       z     vdW  Elec       q    Type
REMARK                         _______ _______ _______ _____ _____    ______ ____
ROOT
ATOM      1  C   UNL     1      30.781 -11.771  28.588  0.00  0.00    +0.000 C 
ATOM      2  S   UNL     1      29.291 -11.739  29.223  0.00  0.00    +0.000 S 
ENDROOT
BRANCH   1   5
ATOM      3  C   UNL     1      31.133 -12.233  26.109  0.00  0.00    +0.000 C 
ATOM      4  O   UNL     1      31.407 -13.043  25.168  0.00  0.00    +0.000 OA
ATOM      5  N   UNL     1      31.096 -12.708  27.500  0.00  0.00    +0.000 N 
ATOM      6  H   UNL     1      31.289 -13.687  27.709  0.00  0.00    +0.000 HD
BRANCH   3  10
ATOM      7  C   UNL     1      27.876  -8.533  24.977  0.00  0.00    +0.000 A 
ATOM      8  C   UNL     1      29.226  -8.962  25.239  0.00  0.00    +0.000 A 
ATOM      9  C   UNL     1      29.497 -10.345  25.535  0.00  0.00    +0.000 A 
ATOM     10  C   UNL     1      30.847 -10.774  25.797  0.00  0.00    +0.000 A 
ATOM     11  C   UNL     1      31.925  -9.820  25.762  0.00  0.00    +0.000 A 
ATOM     12  C   UNL     1      27.605  -7.150  24.681  0.00  0.00    +0.000 A 
BRANCH   7  14
ATOM     13  C   UNL     1      25.590  -9.139  25.651  0.00  0.00    +0.000 C 
ATOM     14  O   UNL     1      26.813  -9.473  25.011  0.00  0.00    +0.000 OA
ENDBRANCH   7  14
ENDBRANCH   3  10
ENDBRANCH   1   5
BRANCH   1  15
ATOM     15  N   UNL     1      31.817 -10.863  29.100  0.00  0.00    +0.000 N 
ATOM     16  H   UNL     1      32.615 -10.617  28.516  0.00  0.00    +0.000 HD
BRANCH  15  17
ATOM     17  N   UNL     1      31.707 -10.328  30.412  0.00  0.00    +0.000 N 
ATOM     18  C   UNL     1      31.678  -8.872  30.612  0.00  0.00    +0.000 C 
ATOM     19  O   UNL     1      31.579  -8.394  31.785  0.00  0.00    +0.000 OA
ATOM     20  H   UNL     1      31.646 -10.955  31.215  0.00  0.00    +0.000 HD
BRANCH  18  21
ATOM     21  C   UNL     1      31.769  -7.939  29.416  0.00  0.00    +0.000 A 
ATOM     22  C   UNL     1      30.568  -7.508  28.747  0.00  0.00    +0.000 A 
ATOM     23  C   UNL     1      29.282  -7.960  29.213  0.00  0.00    +0.000 A 
ATOM     24  C   UNL     1      28.082  -7.530  28.544  0.00  0.00    +0.000 A 
ATOM     25  C   UNL     1      26.796  -7.982  29.010  0.00  0.00    +0.000 A 
ATOM     26  C   UNL     1      26.707  -8.915  30.208  0.00  0.00    +0.000 C 
ATOM     27  C   UNL     1      33.054  -7.486  28.950  0.00  0.00    +0.000 A 
ENDBRANCH  18  21
ENDBRANCH  15  17
ENDBRANCH   1  15
TORSDOF 6
ENDMDL
MODEL 6
REMARK VINA RESULT:    -7.318     24.906     27.151
REMARK INTER + INTRA:          -9.561
REMARK INTER:                  -8.727
REMARK INTRA:                  -0.834
REMARK UNBOUND:                 0.324
REMARK  Name = 
REMARK  8 active torsions:
REMARK  status: ('A' for Active; 'I' for Inactive)
REMARK    1  A    between atoms: C_1  and  O_2
REMARK    2  A    between atoms: O_2  and  C_3
REMARK    3  A    between atoms: C_6  and  C_7
REMARK    4  A    between atoms: N_9  and  C_10
REMARK    5  A    between atoms: C_10  and  N_12
REMARK    6  A    between atoms: N_12  and  N_13
REMARK    7  A    between atoms: C_14  and  C_16
REMARK    8  A    between atoms: C_20  and  C_21
REMARK                            x       y       z     vdW  Elec       q    Type
REMARK                         _______ _______ _______ _____ _____    ______ ____
ROOT
ATOM      1  C   UNL     1      30.257 -10.946  28.853  0.00  0.00    +0.000 C 
ATOM      2  S   UNL     1      30.919 -12.248  28.151  0.00  0.00    +0.000 S 
ENDROOT
BRANCH   1   5
ATOM      3  C   UNL     1      31.616  -9.352  30.299  0.00  0.00    +0.000 C 
ATOM      4  O   UNL     1      32.014  -8.975  31.446  0.00  0.00    +0.000 OA
ATOM      5  N   UNL     1      30.718 -10.511  30.178  0.00  0.00    +0.000 N 
ATOM      6  H   UNL     1      30.417 -11.011  31.014  0.00  0.00    +0.000 HD
BRANCH   3  10
ATOM      7  C   UNL     1      34.592  -8.975  26.227  0.00  0.00    +0.000 A 
ATOM      8  C   UNL     1      33.540  -8.435  27.051  0.00  0.00    +0.000 A 
ATOM      9  C   UNL     1      33.115  -9.144  28.231  0.00  0.00    +0.000 A 
ATOM     10  C   UNL     1      32.064  -8.605  29.054  0.00  0.00    +0.000 A 
ATOM     11  C   UNL     1      31.438  -7.358  28.698  0.00  0.00    +0.000 A 
ATOM     12  C   UNL     1      35.017  -8.267  25.048  0.00  0.00    +0.000 A 
BRANCH   7  14
ATOM     13  C   UNL     1      35.283 -11.258  25.628  0.00  0.00    +0.000 C 
ATOM     14  O   UNL     1      35.209 -10.204  26.578  0.00  0.00    +0.000 OA
ENDBRANCH   7  14
ENDBRANCH   3  10
ENDBRANCH   1   5
BRANCH   1  15
ATOM     15  N   UNL     1      29.194 -10.202  28.162  0.00  0.00    +0.000 N 
ATOM     16  H   UNL     1      29.081 -10.291  27.152  0.00  0.00    +0.000 HD
BRANCH  15  17
ATOM     17  N   UNL     1      28.324  -9.357  28.901  0.00  0.00    +0.000 N 
ATOM     18  C   UNL     1      27.578  -8.290  28.217  0.00  0.00    +0.000 C 
ATOM     19  O   UNL     1      26.799  -7.535  28.879  0.00  0.00    +0.000 OA
ATOM     20  H   UNL     1      28.215  -9.491  29.907  0.00  0.00    +0.000 HD
BRANCH  18  21
ATOM     21  C   UNL     1      27.740  -8.091  26.719  0.00  0.00    +0.000 A 
ATOM     22  C   UNL     1      26.763  -8.635  25.811  0.00  0.00    +0.000 A 
ATOM     23  C   UNL     1      25.634  -9.368  26.323  0.00  0.00    +0.000 A 
ATOM     24  C   UNL     1      24.658  -9.913  25.415  0.00  0.00    +0.000 A 
ATOM     25  C   UNL     1      23.529 -10.646  25.927  0.00  0.00    +0.000 A 
ATOM     26  C   UNL     1      23.367 -10.844  27.425  0.00  0.00    +0.000 C 
ATOM     27  C   UNL     1      28.869  -7.358  26.207  0.00  0.00    +0.000 A 
ENDBRANCH  18  21
ENDBRANCH  15  17
ENDBRANCH   1  15
TORSDOF 6
ENDMDL
MODEL 7
REMARK VINA RESULT:    -7.284      4.285      5.816
REMARK INTER + INTRA:          -9.515
REMARK INTER:                  -8.231
REMARK INTRA:                  -1.284
REMARK UNBOUND:                 0.324
REMARK  Name = 
REMARK  8 active torsions:
REMARK  status: ('A' for Active; 'I' for Inactive)
REMARK    1  A    between atoms: C_1  and  O_2
REMARK    2  A    between atoms: O_2  and  C_3
REMARK    3  A    between atoms: C_6  and  C_7
REMARK    4  A    between atoms: N_9  and  C_10
REMARK    5  A    between atoms: C_10  and  N_12
REMARK    6  A    between atoms: N_12  and  N_13
REMARK    7  A    between atoms: C_14  and  C_16
REMARK    8  A    between atoms: C_20  and  C_21
REMARK                            x       y       z     vdW  Elec       q    Type
REMARK                         _______ _______ _______ _____ _____    ______ ____
ROOT
ATOM      1  C   UNL     1      37.528  13.071  42.370  0.00  0.00    +0.000 C 
ATOM      2  S   UNL     1      36.860  11.649  41.971  0.00  0.00    +0.000 S 
ENDROOT
BRANCH   1   5
ATOM      3  C   UNL     1      36.728  14.151  44.532  0.00  0.00    +0.000 C 
ATOM      4  O   UNL     1      36.036  15.033  45.131  0.00  0.00    +0.000 OA
ATOM      5  N   UNL     1      36.727  14.090  43.062  0.00  0.00    +0.000 N 
ATOM      6  H   UNL     1      36.171  14.755  42.525  0.00  0.00    +0.000 HD
BRANCH   3  10
ATOM      7  C   UNL     1      40.953  12.973  47.052  0.00  0.00    +0.000 A 
ATOM      8  C   UNL     1      39.647  12.597  46.572  0.00  0.00    +0.000 A 
ATOM      9  C   UNL     1      38.861  13.536  45.813  0.00  0.00    +0.000 A 
ATOM     10  C   UNL     1      37.557  13.161  45.333  0.00  0.00    +0.000 A 
ATOM     11  C   UNL     1      37.037  11.847  45.613  0.00  0.00    +0.000 A 
ATOM     12  C   UNL     1      41.737  12.034  47.811  0.00  0.00    +0.000 A 
BRANCH   7  14
ATOM     13  C   UNL     1      42.543  14.783  47.543  0.00  0.00    +0.000 C 
ATOM     14  O   UNL     1      41.465  14.268  46.776  0.00  0.00    +0.000 OA
ENDBRANCH   7  14
ENDBRANCH   3  10
ENDBRANCH   1   5
BRANCH   1  15
ATOM     15  N   UNL     1      38.934  13.340  42.038  0.00  0.00    +0.000 N 
ATOM     16  H   UNL     1      39.465  14.023  42.578  0.00  0.00    +0.000 HD
BRANCH  15  17
ATOM     17  N   UNL     1      39.555  12.648  40.964  0.00  0.00    +0.000 N 
ATOM     18  C   UNL     1      40.970  12.896  40.650  0.00  0.00    +0.000 C 
ATOM     19  O   UNL     1      41.525  12.276  39.689  0.00  0.00    +0.000 OA
ATOM     20  H   UNL     1      39.019  11.979  40.410  0.00  0.00    +0.000 HD
BRANCH  18  21
ATOM     21  C   UNL     1      41.768  13.892  41.475  0.00  0.00    +0.000 A 
ATOM     22  C   UNL     1      42.411  13.468  42.692  0.00  0.00    +0.000 A 
ATOM     23  C   UNL     1      42.298  12.099  43.127  0.00  0.00    +0.000 A 
ATOM     24  C   UNL     1      42.940  11.676  44.343  0.00  0.00    +0.000 A 
ATOM     25  C   UNL     1      42.827  10.307  44.778  0.00  0.00    +0.000 A 
ATOM     26  C   UNL     1      42.029   9.310  43.952  0.00  0.00    +0.000 C 
ATOM     27  C   UNL     1      41.881  15.261  41.040  0.00  0.00    +0.000 A 
ENDBRANCH  18  21
ENDBRANCH  15  17
ENDBRANCH   1  15
TORSDOF 6
ENDMDL
MODEL 8
REMARK VINA RESULT:    -7.273     24.583     26.453
REMARK INTER + INTRA:          -9.499
REMARK INTER:                  -8.605
REMARK INTRA:                  -0.895
REMARK UNBOUND:                 0.324
REMARK  Name = 
REMARK  8 active torsions:
REMARK  status: ('A' for Active; 'I' for Inactive)
REMARK    1  A    between atoms: C_1  and  O_2
REMARK    2  A    between atoms: O_2  and  C_3
REMARK    3  A    between atoms: C_6  and  C_7
REMARK    4  A    between atoms: N_9  and  C_10
REMARK    5  A    between atoms: C_10  and  N_12
REMARK    6  A    between atoms: N_12  and  N_13
REMARK    7  A    between atoms: C_14  and  C_16
REMARK    8  A    between atoms: C_20  and  C_21
REMARK                            x       y       z     vdW  Elec       q    Type
REMARK                         _______ _______ _______ _____ _____    ______ ____
ROOT
ATOM      1  C   UNL     1      27.029  -8.905  31.238  0.00  0.00    +0.000 C 
ATOM      2  S   UNL     1      25.903  -8.829  30.076  0.00  0.00    +0.000 S 
ENDROOT
BRANCH   1   5
ATOM      3  C   UNL     1      26.409  -9.009  33.705  0.00  0.00    +0.000 C 
ATOM      4  O   UNL     1      26.216  -8.424  34.817  0.00  0.00    +0.000 OA
ATOM      5  N   UNL     1      26.805  -8.228  32.523  0.00  0.00    +0.000 N 
ATOM      6  H   UNL     1      26.924  -7.219  32.596  0.00  0.00    +0.000 HD
BRANCH   3  10
ATOM      7  C   UNL     1      28.182 -13.704  34.336  0.00  0.00    +0.000 A 
ATOM      8  C   UNL     1      27.122 -12.822  33.915  0.00  0.00    +0.000 A 
ATOM      9  C   UNL     1      27.290 -11.395  34.018  0.00  0.00    +0.000 A 
ATOM     10  C   UNL     1      26.232 -10.514  33.598  0.00  0.00    +0.000 A 
ATOM     11  C   UNL     1      25.006 -11.059  33.075  0.00  0.00    +0.000 A 
ATOM     12  C   UNL     1      28.013 -15.130  34.233  0.00  0.00    +0.000 A 
BRANCH   7  14
ATOM     13  C   UNL     1      29.597 -13.105  36.255  0.00  0.00    +0.000 C 
ATOM     14  O   UNL     1      29.390 -13.167  34.852  0.00  0.00    +0.000 OA
ENDBRANCH   7  14
ENDBRANCH   3  10
ENDBRANCH   1   5
BRANCH   1  15
ATOM     15  N   UNL     1      28.275  -9.651  31.006  0.00  0.00    +0.000 N 
ATOM     16  H   UNL     1      28.297 -10.409  30.325  0.00  0.00    +0.000 HD
BRANCH  15  17
ATOM     17  N   UNL     1      29.448  -9.315  31.732  0.00  0.00    +0.000 N 
ATOM     18  C   UNL     1      30.648  -8.852  31.019  0.00  0.00    +0.000 C 
ATOM     19  O   UNL     1      31.697  -8.551  31.669  0.00  0.00    +0.000 OA
ATOM     20  H   UNL     1      29.459  -9.395  32.750  0.00  0.00    +0.000 HD
BRANCH  18  21
ATOM     21  C   UNL     1      30.631  -8.733  29.504  0.00  0.00    +0.000 A 
ATOM     22  C   UNL     1      31.128  -9.813  28.691  0.00  0.00    +0.000 A 
ATOM     23  C   UNL     1      31.642 -11.006  29.315  0.00  0.00    +0.000 A 
ATOM     24  C   UNL     1      32.139 -12.085  28.503  0.00  0.00    +0.000 A 
ATOM     25  C   UNL     1      32.652 -13.278  29.127  0.00  0.00    +0.000 A 
ATOM     26  C   UNL     1      32.668 -13.397  30.643  0.00  0.00    +0.000 C 
ATOM     27  C   UNL     1      30.118  -7.540  28.880  0.00  0.00    +0.000 A 
ENDBRANCH  18  21
ENDBRANCH  15  17
ENDBRANCH   1  15
TORSDOF 6
ENDMDL
MODEL 9
REMARK VINA RESULT:    -7.193     29.164     32.547
REMARK INTER + INTRA:          -9.391
REMARK INTER:                  -8.006
REMARK INTRA:                  -1.385
REMARK UNBOUND:                 0.324
REMARK  Name = 
REMARK  8 active torsions:
REMARK  status: ('A' for Active; 'I' for Inactive)
REMARK    1  A    between atoms: C_1  and  O_2
REMARK    2  A    between atoms: O_2  and  C_3
REMARK    3  A    between atoms: C_6  and  C_7
REMARK    4  A    between atoms: N_9  and  C_10
REMARK    5  A    between atoms: C_10  and  N_12
REMARK    6  A    between atoms: N_12  and  N_13
REMARK    7  A    between atoms: C_14  and  C_16
REMARK    8  A    between atoms: C_20  and  C_21
REMARK                            x       y       z     vdW  Elec       q    Type
REMARK                         _______ _______ _______ _____ _____    ______ ____
ROOT
ATOM      1  C   UNL     1      10.408  -0.494  26.499  0.00  0.00    +0.000 C 
ATOM      2  S   UNL     1       9.127  -0.956  27.377  0.00  0.00    +0.000 S 
ENDROOT
BRANCH   1   5
ATOM      3  C   UNL     1      10.197   1.803  25.420  0.00  0.00    +0.000 C 
ATOM      4  O   UNL     1      10.032   2.522  24.385  0.00  0.00    +0.000 OA
ATOM      5  N   UNL     1      10.216   0.337  25.302  0.00  0.00    +0.000 N 
ATOM      6  H   UNL     1      10.096  -0.101  24.389  0.00  0.00    +0.000 HD
BRANCH   3  10
ATOM      7  C   UNL     1      13.192   3.527  29.114  0.00  0.00    +0.000 A 
ATOM      8  C   UNL     1      11.868   3.303  28.591  0.00  0.00    +0.000 A 
ATOM      9  C   UNL     1      11.699   2.683  27.302  0.00  0.00    +0.000 A 
ATOM     10  C   UNL     1      10.376   2.458  26.780  0.00  0.00    +0.000 A 
ATOM     11  C   UNL     1       9.222   2.853  27.546  0.00  0.00    +0.000 A 
ATOM     12  C   UNL     1      13.361   4.148  30.402  0.00  0.00    +0.000 A 
BRANCH   7  14
ATOM     13  C   UNL     1      15.402   4.049  28.169  0.00  0.00    +0.000 C 
ATOM     14  O   UNL     1      14.329   3.137  28.358  0.00  0.00    +0.000 OA
ENDBRANCH   7  14
ENDBRANCH   3  10
ENDBRANCH   1   5
BRANCH   1  15
ATOM     15  N   UNL     1      11.760  -0.906  26.899  0.00  0.00    +0.000 N 
ATOM     16  H   UNL     1      12.182  -0.523  27.745  0.00  0.00    +0.000 HD
BRANCH  15  17
ATOM     17  N   UNL     1      12.482  -1.839  26.107  0.00  0.00    +0.000 N 
ATOM     18  C   UNL     1      13.674  -1.405  25.363  0.00  0.00    +0.000 C 
ATOM     19  O   UNL     1      14.319  -2.240  24.655  0.00  0.00    +0.000 OA
ATOM     20  H   UNL     1      12.173  -2.810  26.056  0.00  0.00    +0.000 HD
BRANCH  18  21
ATOM     21  C   UNL     1      14.132   0.042  25.441  0.00  0.00    +0.000 A 
ATOM     22  C   UNL     1      13.773   0.967  24.397  0.00  0.00    +0.000 A 
ATOM     23  C   UNL     1      12.980   0.521  23.280  0.00  0.00    +0.000 A 
ATOM     24  C   UNL     1      12.622   1.446  22.237  0.00  0.00    +0.000 A 
ATOM     25  C   UNL     1      11.829   1.000  21.121  0.00  0.00    +0.000 A 
ATOM     26  C   UNL     1      11.370  -0.447  21.044  0.00  0.00    +0.000 C 
ATOM     27  C   UNL     1      14.926   0.488  26.557  0.00  0.00    +0.000 A 
ENDBRANCH  18  21
ENDBRANCH  15  17
ENDBRANCH   1  15
TORSDOF 6
ENDMDL
MODEL 10
REMARK VINA RESULT:    -7.166     24.688     26.962
REMARK INTER + INTRA:          -9.355
REMARK INTER:                  -7.815
REMARK INTRA:                  -1.540
REMARK UNBOUND:                 0.324
REMARK  Name = 
REMARK  8 active torsions:
REMARK  status: ('A' for Active; 'I' for Inactive)
REMARK    1  A    between atoms: C_1  and  O_2
REMARK    2  A    between atoms: O_2  and  C_3
REMARK    3  A    between atoms: C_6  and  C_7
REMARK    4  A    between atoms: N_9  and  C_10
REMARK    5  A    between atoms: C_10  and  N_12
REMARK    6  A    between atoms: N_12  and  N_13
REMARK    7  A    between atoms: C_14  and  C_16
REMARK    8  A    between atoms: C_20  and  C_21
REMARK                            x       y       z     vdW  Elec       q    Type
REMARK                         _______ _______ _______ _____ _____    ______ ____
ROOT
ATOM      1  C   UNL     1      29.326  -7.805  29.069  0.00  0.00    +0.000 C 
ATOM      2  S   UNL     1      27.783  -8.285  29.193  0.00  0.00    +0.000 S 
ENDROOT
BRANCH   1   5
ATOM      3  C   UNL     1      31.309  -8.863  30.265  0.00  0.00    +0.000 C 
ATOM      4  O   UNL     1      32.078  -8.928  31.274  0.00  0.00    +0.000 OA
ATOM      5  N   UNL     1      30.215  -7.880  30.236  0.00  0.00    +0.000 N 
ATOM      6  H   UNL     1      30.075  -7.252  31.027  0.00  0.00    +0.000 HD
BRANCH   3  10
ATOM      7  C   UNL     1      33.592  -9.995  25.895  0.00  0.00    +0.000 A 
ATOM      8  C   UNL     1      32.655 -10.342  26.933  0.00  0.00    +0.000 A 
ATOM      9  C   UNL     1      32.456  -9.454  28.050  0.00  0.00    +0.000 A 
ATOM     10  C   UNL     1      31.519  -9.800  29.087  0.00  0.00    +0.000 A 
ATOM     11  C   UNL     1      30.781 -11.035  29.008  0.00  0.00    +0.000 A 
ATOM     12  C   UNL     1      33.791 -10.884  24.780  0.00  0.00    +0.000 A 
BRANCH   7  14
ATOM     13  C   UNL     1      34.995  -8.281  24.828  0.00  0.00    +0.000 C 
ATOM     14  O   UNL     1      34.320  -8.779  25.974  0.00  0.00    +0.000 OA
ENDBRANCH   7  14
ENDBRANCH   3  10
ENDBRANCH   1   5
BRANCH   1  15
ATOM     15  N   UNL     1      29.834  -7.294  27.788  0.00  0.00    +0.000 N 
ATOM     16  H   UNL     1      30.833  -7.327  27.585  0.00  0.00    +0.000 HD
BRANCH  15  17
ATOM     17  N   UNL     1      28.934  -6.753  26.832  0.00  0.00    +0.000 N 
ATOM     18  C   UNL     1      28.611  -7.512  25.614  0.00  0.00    +0.000 C 
ATOM     19  O   UNL     1      27.806  -7.028  24.759  0.00  0.00    +0.000 OA
ATOM     20  H   UNL     1      28.510  -5.839  26.990  0.00  0.00    +0.000 HD
BRANCH  18  21
ATOM     21  C   UNL     1      29.243  -8.874  25.378  0.00  0.00    +0.000 A 
ATOM     22  C   UNL     1      30.342  -9.008  24.457  0.00  0.00    +0.000 A 
ATOM     23  C   UNL     1      30.841  -7.852  23.758  0.00  0.00    +0.000 A 
ATOM     24  C   UNL     1      31.939  -7.986  22.837  0.00  0.00    +0.000 A 
ATOM     25  C   UNL     1      32.438  -6.830  22.138  0.00  0.00    +0.000 A 
ATOM     26  C   UNL     1      31.807  -5.467  22.375  0.00  0.00    +0.000 C 
ATOM     27  C   UNL     1      28.744 -10.031  26.077  0.00  0.00    +0.000 A 
ENDBRANCH  18  21
ENDBRANCH  15  17
ENDBRANCH   1  15
TORSDOF 6
ENDMDL
