REMARK  Name = 
REMARK  10 active torsions:
REMARK  status: ('A' for Active; 'I' for Inactive)
REMARK    1  A    between atoms: C_1  and  C_2
REMARK    2  A    between atoms: C_2  and  C_3
REMARK    3  A    between atoms: C_3  and  N_4
REMARK    4  A    between atoms: C_8  and  C_9
REMARK    5  A    between atoms: C_9  and  O_10
REMARK    6  A    between atoms: C_11  and  C_12
REMARK    7  A    between atoms: C_15  and  C_16
REMARK    8  A    between atoms: C_20  and  O_21
REMARK    9  A    between atoms: O_21  and  C_22
REMARK   10  A    between atoms: C_26  and  C_27
REMARK                            x       y       z     vdW  Elec       q    Type
REMARK                         _______ _______ _______ _____ _____    ______ ____
ROOT
ATOM      1  N   UNL     1       0.531  -1.479  -2.318  0.00  0.00    +0.000 N 
ATOM      2  C   UNL     1      -0.314  -2.034  -3.385  0.00  0.00    +0.000 C 
ATOM      3  O   UNL     1      -0.738  -3.230  -3.302  0.00  0.00    +0.000 OA
ATOM      4  N   UNL     1      -0.670  -1.207  -4.547  0.00  0.00    +0.000 N 
ATOM      5  C   UNL     1      -1.515  -1.763  -5.614  0.00  0.00    +0.000 C 
ATOM      6  C   UNL     1      -2.857  -2.176  -5.033  0.00  0.00    +0.000 C 
ATOM      7  C   UNL     1      -0.180   0.175  -4.643  0.00  0.00    +0.000 C 
ATOM      8  H   UNL     1       0.777  -2.052  -1.512  0.00  0.00    +0.000 HD
ENDROOT
BRANCH   6   9
ATOM      9  C   UNL     1      -3.731  -2.751  -6.136  0.00  0.00    +0.000 A 
ATOM     10  C   UNL     1      -4.079  -1.941  -7.275  0.00  0.00    +0.000 A 
ATOM     11  C   UNL     1      -3.599  -0.586  -7.369  0.00  0.00    +0.000 A 
ATOM     12  C   UNL     1      -3.947   0.224  -8.507  0.00  0.00    +0.000 A 
ATOM     13  C   UNL     1      -4.775  -0.320  -9.552  0.00  0.00    +0.000 A 
ATOM     14  C   UNL     1      -4.211  -4.105  -6.042  0.00  0.00    +0.000 A 
BRANCH  12  15
ATOM     15  C   UNL     1      -3.440   1.654  -8.606  0.00  0.00    +0.000 A 
ATOM     16  C   UNL     1      -2.612   2.198  -7.561  0.00  0.00    +0.000 A 
ATOM     17  C   UNL     1      -2.264   1.388  -6.422  0.00  0.00    +0.000 A 
ATOM     18  C   UNL     1      -1.436   1.932  -5.377  0.00  0.00    +0.000 A 
ATOM     19  C   UNL     1      -1.088   1.122  -4.238  0.00  0.00    +0.000 A 
ATOM     20  C   UNL     1      -3.788   2.464  -9.745  0.00  0.00    +0.000 A 
BRANCH  19  21
ATOM     21  O   UNL     1      -1.562  -0.213  -4.146  0.00  0.00    +0.000 OA
ATOM     22  C   UNL     1      -1.219  -1.012  -3.023  0.00  0.00    +0.000 C 
ENDBRANCH  19  21
ENDBRANCH  12  15
ENDBRANCH   6   9
BRANCH   7  23
ATOM     23  C   UNL     1      -1.362   1.128  -4.709  0.00  0.00    +0.000 C 
ATOM     24  N   UNL     1      -2.342   1.919  -4.763  0.00  0.00    +0.000 NA
ENDBRANCH   7  23
BRANCH   1  25
ATOM     25  C   UNL     1       1.021  -0.096  -2.414  0.00  0.00    +0.000 C 
BRANCH  25  27
ATOM     26  C   UNL     1       1.021   0.075   0.063  0.00  0.00    +0.000 C 
ATOM     27  C   UNL     1       0.514   0.704  -1.225  0.00  0.00    +0.000 C 
ENDBRANCH  25  27
ENDBRANCH   1  25
BRANCH   5  28
ATOM     28  C   UNL     1      -1.730  -0.711  -6.690  0.00  0.00    +0.000 C 
BRANCH  28  29
ATOM     29  O   UNL     1      -1.856   0.569  -6.087  0.00  0.00    +0.000 OA
ATOM     30  H   UNL     1      -2.668   0.585  -5.505  0.00  0.00    +0.000 HD
ENDBRANCH  28  29
ENDBRANCH   5  28
TORSDOF 8
