REMARK  Name = 
REMARK  4 active torsions:
REMARK  status: ('A' for Active; 'I' for Inactive)
REMARK    1  A    between atoms: C_8  and  C_9
REMARK    2  A    between atoms: C_11  and  C_12
REMARK    3  A    between atoms: C_15  and  C_16
REMARK    4  A    between atoms: C_17  and  C_18
REMARK                            x       y       z     vdW  Elec       q    Type
REMARK                         _______ _______ _______ _____ _____    ______ ____
ROOT
ATOM      1  C   UNL     1       2.206  -1.468   2.143  0.00  0.00    +0.000 A 
ATOM      2  N   UNL     1       2.902  -2.134   3.149  0.00  0.00    +0.000 NA
ATOM      3  C   UNL     1       2.206  -2.800   4.155  0.00  0.00    +0.000 A 
ATOM      4  C   UNL     1       2.926  -3.488   5.195  0.00  0.00    +0.000 A 
ATOM      5 BR   UNL     1       1.946  -4.425   6.610  0.00  0.00    +0.000 Br
ATOM      6  N   UNL     1       0.813  -1.468   2.143  0.00  0.00    +0.000 N 
ATOM      7  H   UNL     1       0.303  -0.981   1.406  0.00  0.00    +0.000 HD
ENDROOT
BRANCH   1  15
ATOM      8  F   UNL     1       0.916  -0.053   0.005  0.00  0.00    +0.000 F 
ATOM      9  C   UNL     1       2.246  -0.053   0.005  0.00  0.00    +0.000 A 
ATOM     10  C   UNL     1       2.966   0.635  -1.035  0.00  0.00    +0.000 A 
ATOM     11  C   UNL     1       2.246   1.323  -2.075  0.00  0.00    +0.000 A 
ATOM     12  C   UNL     1       2.966   2.012  -3.115  0.00  0.00    +0.000 A 
ATOM     13  C   UNL     1       2.246   2.700  -4.155  0.00  0.00    +0.000 A 
ATOM     14 CL   UNL     1       0.466   2.700  -4.155  0.00  0.00    +0.000 Cl
ATOM     15  C   UNL     1       2.966  -0.742   1.045  0.00  0.00    +0.000 A 
ENDBRANCH   1  15
BRANCH   3  16
ATOM     16  C   UNL     1       0.686  -2.800   4.155  0.00  0.00    +0.000 A 
ATOM     17  C   UNL     1      -0.034  -2.111   3.114  0.00  0.00    +0.000 A 
ATOM     18  C   UNL     1       0.686  -1.423   2.074  0.00  0.00    +0.000 A 
ATOM     19  C   UNL     1      -0.034  -0.735   1.034  0.00  0.00    +0.000 A 
ATOM     20  N   UNL     1      -1.427  -0.735   1.034  0.00  0.00    +0.000 NA
ATOM     21  C   UNL     1      -0.034  -3.488   5.195  0.00  0.00    +0.000 A 
BRANCH  19  22
ATOM     22  C   UNL     1       0.726  -0.008  -0.063  0.00  0.00    +0.000 C 
ATOM     23  C   UNL     1       1.378   0.615  -1.005  0.00  0.00    +0.000 C 
BRANCH  23  24
ATOM     24  C   UNL     1       2.138   1.341  -2.103  0.00  0.00    +0.000 A 
ATOM     25  C   UNL     1       3.537   1.637  -1.935  0.00  0.00    +0.000 A 
ATOM     26  C   UNL     1       4.217   1.244  -0.728  0.00  0.00    +0.000 A 
ATOM     27  C   UNL     1       5.616   1.539  -0.561  0.00  0.00    +0.000 A 
ATOM     28  C   UNL     1       6.296   1.146   0.647  0.00  0.00    +0.000 A 
ATOM     29  C   UNL     1       1.458   1.735  -3.310  0.00  0.00    +0.000 A 
ENDBRANCH  23  24
ENDBRANCH  19  22
ENDBRANCH   3  16
TORSDOF 4
