REMARK  Name = 
REMARK  7 active torsions:
REMARK  status: ('A' for Active; 'I' for Inactive)
REMARK    1  A    between atoms: C_1  and  O_2
REMARK    2  A    between atoms: O_2  and  C_3
REMARK    3  A    between atoms: C_6  and  C_7
REMARK    4  A    between atoms: N_10  and  N_11
REMARK    5  A    between atoms: C_12  and  C_13
REMARK    6  A    between atoms: C_12  and  C_14
REMARK    7  A    between atoms: C_17  and  O_18
REMARK                            x       y       z     vdW  Elec       q    Type
REMARK                         _______ _______ _______ _____ _____    ______ ____
ROOT
ATOM      1  C   UNL     1      -1.853   0.276   6.053  0.00  0.00    +0.000 A 
ATOM      2  N   UNL     1      -2.189   1.442   5.371  0.00  0.00    +0.000 NA
ATOM      3  C   UNL     1      -2.990   2.402   5.985  0.00  0.00    +0.000 A 
ATOM      4  N   UNL     1      -3.480   2.184   7.354  0.00  0.00    +0.000 N 
ATOM      5  C   UNL     1      -3.338   3.609   5.279  0.00  0.00    +0.000 A 
ATOM      6  C   UNL     1      -4.166   4.601   5.915  0.00  0.00    +0.000 A 
ATOM      7  C   UNL     1      -4.646   4.387   7.256  0.00  0.00    +0.000 A 
ATOM      8  C   UNL     1      -5.474   5.379   7.891  0.00  0.00    +0.000 A 
ATOM      9  C   UNL     1      -5.954   5.165   9.232  0.00  0.00    +0.000 A 
ATOM     10  C   UNL     1      -2.858   3.822   3.939  0.00  0.00    +0.000 A 
ATOM     11  N   UNL     1      -2.317   0.069   7.350  0.00  0.00    +0.000 NA
ATOM     12  H   UNL     1      -3.233   1.329   7.853  0.00  0.00    +0.000 HD
ENDROOT
BRANCH   1  16
ATOM     13  C   UNL     1       0.809  -1.336   2.065  0.00  0.00    +0.000 A 
ATOM     14  C   UNL     1       0.329  -1.550   3.406  0.00  0.00    +0.000 A 
ATOM     15  C   UNL     1      -0.499  -0.558   4.041  0.00  0.00    +0.000 A 
ATOM     16  C   UNL     1      -0.979  -0.772   5.382  0.00  0.00    +0.000 A 
ATOM     17  C   UNL     1      -0.631  -1.978   6.088  0.00  0.00    +0.000 A 
ATOM     18  C   UNL     1       1.637  -2.329   1.430  0.00  0.00    +0.000 A 
BRANCH  13  20
ATOM     19  C   UNL     1       0.940   0.064   0.047  0.00  0.00    +0.000 C 
ATOM     20  O   UNL     1       0.466  -0.147   1.370  0.00  0.00    +0.000 OA
ENDBRANCH  13  20
ENDBRANCH   1  16
BRANCH   4  21
ATOM     21  N   UNL     1      -4.296   3.162   7.980  0.00  0.00    +0.000 NA
ATOM     22  C   UNL     1      -4.614   4.264   7.336  0.00  0.00    +0.000 C 
ATOM     23  C   UNL     1      -4.107   4.490   5.920  0.00  0.00    +0.000 C 
BRANCH  22  24
ATOM     24  C   UNL     1      -5.488   5.312   8.006  0.00  0.00    +0.000 A 
ATOM     25  C   UNL     1      -5.836   6.518   7.301  0.00  0.00    +0.000 A 
ATOM     26  C   UNL     1      -5.356   6.732   5.960  0.00  0.00    +0.000 A 
ATOM     27  C   UNL     1      -5.704   7.938   5.254  0.00  0.00    +0.000 A 
ATOM     28  C   UNL     1      -6.532   8.931   5.890  0.00  0.00    +0.000 A 
ATOM     29  C   UNL     1      -5.968   5.098   9.347  0.00  0.00    +0.000 A 
BRANCH  27  30
ATOM     30  O   UNL     1      -5.230   8.149   3.932  0.00  0.00    +0.000 OA
ATOM     31  H   UNL     1      -4.655   7.460   3.491  0.00  0.00    +0.000 HD
ENDBRANCH  27  30
ENDBRANCH  22  24
ENDBRANCH   4  21
TORSDOF 5
