REMARK  Name = 
REMARK  5 active torsions:
REMARK  status: ('A' for Active; 'I' for Inactive)
REMARK    1  A    between atoms: C_1  and  O_2
REMARK    2  A    between atoms: O_2  and  C_3
REMARK    3  A    between atoms: C_5  and  C_6
REMARK    4  A    between atoms: N_11  and  C_12
REMARK    5  A    between atoms: C_24  and  O_25
REMARK                            x       y       z     vdW  Elec       q    Type
REMARK                         _______ _______ _______ _____ _____    ______ ____
ROOT
ATOM      1  C   UNL     1      -1.005  -5.322  -1.476  0.00  0.00    +0.000 C 
ATOM      2  C   UNL     1      -1.787  -6.036  -0.622  0.00  0.00    +0.000 C 
ATOM      3  C   UNL     1      -2.294  -7.411  -1.025  0.00  0.00    +0.000 C 
ATOM      4  O   UNL     1      -1.987  -7.894  -2.160  0.00  0.00    +0.000 OA
ATOM      5  N   UNL     1      -3.139  -8.182  -0.102  0.00  0.00    +0.000 N 
ATOM      6  N   UNL     1      -3.482  -7.643   1.166  0.00  0.00    +0.000 N 
ATOM      7  C   UNL     1      -2.154  -5.458   0.735  0.00  0.00    +0.000 C 
ATOM      8  O   UNL     1      -1.731  -4.308   1.072  0.00  0.00    +0.000 OA
ATOM      9  H   UNL     1      -3.479  -9.105  -0.372  0.00  0.00    +0.000 HD
ENDROOT
BRANCH   1  12
ATOM     10  C   UNL     1       0.810  -1.888  -1.595  0.00  0.00    +0.000 A 
ATOM     11  C   UNL     1       0.330  -3.191  -1.977  0.00  0.00    +0.000 A 
ATOM     12  C   UNL     1      -0.498  -3.947  -1.073  0.00  0.00    +0.000 A 
ATOM     13  C   UNL     1      -0.846  -3.399   0.213  0.00  0.00    +0.000 A 
ATOM     14  C   UNL     1      -0.366  -2.096   0.595  0.00  0.00    +0.000 A 
ATOM     15 BR   UNL     1       0.761  -1.068  -0.636  0.00  0.00    +0.000 Br
ATOM     16  C   UNL     1       1.638  -1.132  -2.500  0.00  0.00    +0.000 A 
BRANCH  10  18
ATOM     17  C   UNL     1       0.940  -0.063   0.049  0.00  0.00    +0.000 C 
ATOM     18  O   UNL     1       0.467  -1.348  -0.328  0.00  0.00    +0.000 OA
ENDBRANCH  10  18
BRANCH  16  19
ATOM     19  O   UNL     1       2.111   0.153  -2.123  0.00  0.00    +0.000 OA
ATOM     20  H   UNL     1       2.686   0.677  -2.751  0.00  0.00    +0.000 HD
ENDBRANCH  16  19
ENDBRANCH   1  12
BRANCH   6  21
ATOM     21  C   UNL     1      -2.992  -6.313   1.556  0.00  0.00    +0.000 A 
ATOM     22  C   UNL     1      -3.340  -5.765   2.841  0.00  0.00    +0.000 A 
ATOM     23  C   UNL     1      -4.168  -6.521   3.746  0.00  0.00    +0.000 A 
ATOM     24  C   UNL     1      -4.516  -5.974   5.031  0.00  0.00    +0.000 A 
ATOM     25  C   UNL     1      -5.344  -6.729   5.936  0.00  0.00    +0.000 A 
ATOM     26 CL   UNL     1      -5.937  -8.340   5.464  0.00  0.00    +0.000 Cl
ATOM     27  C   UNL     1      -2.164  -5.557   0.651  0.00  0.00    +0.000 A 
ENDBRANCH   6  21
TORSDOF 4
