REMARK  Name = 
REMARK  6 active torsions:
REMARK  status: ('A' for Active; 'I' for Inactive)
REMARK    1  A    between atoms: C_2  and  C_3
REMARK    2  A    between atoms: C_2  and  C_4
REMARK    3  A    between atoms: C_18  and  O_19
REMARK    4  A    between atoms: O_19  and  C_20
REMARK    5  A    between atoms: C_21  and  O_22
REMARK    6  A    between atoms: O_22  and  C_23
REMARK                            x       y       z     vdW  Elec       q    Type
REMARK                         _______ _______ _______ _____ _____    ______ ____
ROOT
ATOM      1  C   UNL     1       1.011  -2.478   0.090  0.00  0.00    +0.000 C 
ATOM      2  C   UNL     1       2.151  -0.435  -0.731  0.00  0.00    +0.000 C 
ATOM      3  C   UNL     1       3.025  -0.507   0.511  0.00  0.00    +0.000 A 
ATOM      4  C   UNL     1       2.833  -1.566   1.467  0.00  0.00    +0.000 A 
ATOM      5  C   UNL     1       3.661  -1.634   2.643  0.00  0.00    +0.000 A 
ATOM      6  C   UNL     1       3.469  -2.694   3.599  0.00  0.00    +0.000 A 
ATOM      7  C   UNL     1       4.297  -2.761   4.776  0.00  0.00    +0.000 A 
ATOM      8  C   UNL     1       5.317  -1.768   4.996  0.00  0.00    +0.000 A 
ATOM      9  O   UNL     1       6.133  -1.835   6.156  0.00  0.00    +0.000 OA
ATOM     10  C   UNL     1       7.139  -0.856   6.373  0.00  0.00    +0.000 C 
ATOM     11  C   UNL     1       7.208  -0.524   8.588  0.00  0.00    +0.000 C 
ATOM     12  O   UNL     1       8.214   0.455   8.805  0.00  0.00    +0.000 OA
ATOM     13  C   UNL     1       8.403   1.500   7.863  0.00  0.00    +0.000 A 
ATOM     14  C   UNL     1       9.423   2.492   8.083  0.00  0.00    +0.000 A 
ATOM     15  C   UNL     1       9.615   3.552   7.127  0.00  0.00    +0.000 A 
ATOM     16  C   UNL     1       8.788   3.619   5.951  0.00  0.00    +0.000 A 
ATOM     17  C   UNL     1       7.767   2.627   5.730  0.00  0.00    +0.000 A 
ATOM     18  C   UNL     1       7.575   1.567   6.686  0.00  0.00    +0.000 A 
ATOM     19  C   UNL     1       6.499   0.520   6.454  0.00  0.00    +0.000 C 
ATOM     20  C   UNL     1       4.094  -3.879   5.785  0.00  0.00    +0.000 C 
ATOM     21  O   UNL     1       3.194  -4.755   5.590  0.00  0.00    +0.000 OA
ATOM     22  O   UNL     1       1.827  -2.545   1.249  0.00  0.00    +0.000 OA
ENDROOT
BRANCH   1  24
ATOM     23  C   UNL     1       0.931   0.016   0.071  0.00  0.00    +0.000 C 
ATOM     24  C   UNL     1       0.251  -1.162   0.080  0.00  0.00    +0.000 C 
ATOM     25  C   UNL     1      -1.269  -1.162   0.080  0.00  0.00    +0.000 C 
ENDBRANCH   1  24
BRANCH  15  26
ATOM     26  O   UNL     1      10.621   4.530   7.344  0.00  0.00    +0.000 OA
ATOM     27  C   UNL     1      11.438   4.464   8.504  0.00  0.00    +0.000 C 
ENDBRANCH  15  26
BRANCH  16  28
ATOM     28  O   UNL     1       8.977   4.664   5.008  0.00  0.00    +0.000 OA
ATOM     29  C   UNL     1       8.161   4.731   3.848  0.00  0.00    +0.000 C 
ENDBRANCH  16  28
TORSDOF 3
