REMARK  Name = 
REMARK  7 active torsions:
REMARK  status: ('A' for Active; 'I' for Inactive)
REMARK    1  A    between atoms: C_1  and  C_2
REMARK    2  A    between atoms: C_2  and  C_3
REMARK    3  A    between atoms: C_3  and  C_4
REMARK    4  A    between atoms: C_3  and  O_5
REMARK    5  A    between atoms: O_5  and  C_6
REMARK    6  A    between atoms: C_8  and  C_9
REMARK    7  A    between atoms: N_14  and  C_15
REMARK                            x       y       z     vdW  Elec       q    Type
REMARK                         _______ _______ _______ _____ _____    ______ ____
ROOT
ATOM      1  C   UNL     1      -0.981  -0.316   7.648  0.00  0.00    +0.000 A 
ATOM      2  C   UNL     1      -2.397  -0.369   7.905  0.00  0.00    +0.000 A 
ATOM      3  C   UNL     1      -3.333  -0.149   6.833  0.00  0.00    +0.000 A 
ATOM      4  N   UNL     1      -4.702  -0.200   7.082  0.00  0.00    +0.000 NA
ATOM      5  C   UNL     1      -5.166  -0.464   8.369  0.00  0.00    +0.000 A 
ATOM      6  N   UNL     1      -6.612  -0.518   8.632  0.00  0.00    +0.000 N 
ATOM      7  N   UNL     1      -0.076  -0.529   8.685  0.00  0.00    +0.000 NA
ATOM      8  H   UNL     1      -6.952  -0.712   9.574  0.00  0.00    +0.000 HD
ENDROOT
BRANCH   6   9
ATOM      9  C   UNL     1      -7.567  -0.293   7.537  0.00  0.00    +0.000 A 
ATOM     10  C   UNL     1      -7.087  -0.020   6.207  0.00  0.00    +0.000 A 
ATOM     11  C   UNL     1      -5.671   0.033   5.950  0.00  0.00    +0.000 A 
ATOM     12  C   UNL     1      -5.191   0.306   4.619  0.00  0.00    +0.000 A 
ATOM     13  C   UNL     1      -3.775   0.359   4.362  0.00  0.00    +0.000 A 
ATOM     14 CL   UNL     1      -2.618   0.087   5.687  0.00  0.00    +0.000 Cl
ATOM     15  C   UNL     1      -8.983  -0.346   7.795  0.00  0.00    +0.000 A 
ENDBRANCH   6   9
BRANCH   1  18
ATOM     16  C   UNL     1      -0.930   0.466   3.842  0.00  0.00    +0.000 A 
ATOM     17  C   UNL     1      -1.410   0.193   5.172  0.00  0.00    +0.000 A 
ATOM     18  C   UNL     1      -0.474  -0.027   6.244  0.00  0.00    +0.000 A 
ATOM     19  C   UNL     1       0.942   0.026   5.986  0.00  0.00    +0.000 A 
ATOM     20  C   UNL     1       1.422   0.299   4.656  0.00  0.00    +0.000 A 
ATOM     21  N   UNL     1      -1.835   0.679   2.805  0.00  0.00    +0.000 NA
BRANCH  16  22
ATOM     22  O   UNL     1       0.466   0.518   3.587  0.00  0.00    +0.000 OA
BRANCH  22  23
ATOM     23  C   UNL     1       0.939   0.788   2.276  0.00  0.00    +0.000 C 
ATOM     24  C   UNL     1       0.433   2.148   1.824  0.00  0.00    +0.000 C 
BRANCH  23  26
ATOM     25  C   UNL     1       0.939   0.005  -0.079  0.00  0.00    +0.000 C 
ATOM     26  C   UNL     1       0.433  -0.283   1.324  0.00  0.00    +0.000 C 
ENDBRANCH  23  26
ENDBRANCH  22  23
ENDBRANCH  16  22
ENDBRANCH   1  18
TORSDOF 5
