REMARK  Name = 
REMARK  14 active torsions:
REMARK  status: ('A' for Active; 'I' for Inactive)
REMARK    1  A    between atoms: C_1  and  C_2
REMARK    2  A    between atoms: C_2  and  N_3
REMARK    3  A    between atoms: C_5  and  C_6
REMARK    4  A    between atoms: C_10  and  C_11
REMARK    5  A    between atoms: C_13  and  C_14
REMARK    6  A    between atoms: N_16  and  C_17
REMARK    7  A    between atoms: C_17  and  C_18
REMARK    8  A    between atoms: C_18  and  O_19
REMARK    9  A    between atoms: C_21  and  C_22
REMARK   10  A    between atoms: N_24  and  C_25
REMARK   11  A    between atoms: C_25  and  C_26
REMARK   12  A    between atoms: C_26  and  N_27
REMARK   13  A    between atoms: C_36  and  N_37
REMARK   14  A    between atoms: N_40  and  C_41
REMARK                            x       y       z     vdW  Elec       q    Type
REMARK                         _______ _______ _______ _____ _____    ______ ____
ROOT
ATOM      1  C   UNL     1       1.833  -4.486  -2.340  0.00  0.00    +0.000 A 
ATOM      2  C   UNL     1       0.417  -4.230  -2.280  0.00  0.00    +0.000 A 
ATOM      3  C   UNL     1      -0.063  -2.907  -1.975  0.00  0.00    +0.000 A 
ATOM      4  C   UNL     1      -1.479  -2.651  -1.916  0.00  0.00    +0.000 A 
ATOM      5  C   UNL     1      -1.959  -1.327  -1.611  0.00  0.00    +0.000 A 
ATOM      6  C   UNL     1       2.313  -5.810  -2.645  0.00  0.00    +0.000 A 
ENDROOT
BRANCH   1   9
ATOM      7  N   UNL     1       1.034  -1.842  -1.729  0.00  0.00    +0.000 N 
ATOM      8  N   UNL     1       2.357  -2.081  -1.785  0.00  0.00    +0.000 NA
ATOM      9  C   UNL     1       2.821  -3.361  -2.080  0.00  0.00    +0.000 A 
ATOM     10  C   UNL     1       4.237  -3.617  -2.139  0.00  0.00    +0.000 A 
ATOM     11  C   UNL     1       5.173  -2.551  -1.893  0.00  0.00    +0.000 A 
ATOM     12  C   UNL     1       0.129  -2.873  -1.967  0.00  0.00    +0.000 A 
ATOM     13  O   UNL     1      -1.121  -2.647  -1.915  0.00  0.00    +0.000 OA
BRANCH  11  14
ATOM     14  N   UNL     1       4.683  -1.200  -1.581  0.00  0.00    +0.000 N 
ATOM     15  C   UNL     1       3.238  -0.938  -1.521  0.00  0.00    +0.000 C 
ATOM     16  O   UNL     1       2.814   0.229  -1.252  0.00  0.00    +0.000 OA
ATOM     17  N   UNL     1       2.283  -2.027  -1.772  0.00  0.00    +0.000 N 
ATOM     18  H   UNL     1       5.346  -0.445  -1.407  0.00  0.00    +0.000 HD
ATOM     19  H   UNL     1       1.280  -1.845  -1.730  0.00  0.00    +0.000 HD
BRANCH  17  20
ATOM     20  C   UNL     1       2.772  -3.377  -2.084  0.00  0.00    +0.000 A 
ATOM     21  C   UNL     1       4.188  -3.634  -2.143  0.00  0.00    +0.000 A 
ATOM     22 CL   UNL     1       5.345  -2.316  -1.839  0.00  0.00    +0.000 Cl
ATOM     23  C   UNL     1       4.669  -4.957  -2.448  0.00  0.00    +0.000 A 
ATOM     24  N   UNL     1       3.763  -5.989  -2.686  0.00  0.00    +0.000 NA
ATOM     25  C   UNL     1       2.394  -5.741  -2.629  0.00  0.00    +0.000 A 
ATOM     26  C   UNL     1       1.837  -4.444  -2.330  0.00  0.00    +0.000 A 
ATOM     27 CL   UNL     1       0.087  -4.127  -2.257  0.00  0.00    +0.000 Cl
ENDBRANCH  17  20
ENDBRANCH  11  14
BRANCH   7  29
ATOM     28  C   UNL     1       1.051  -0.072  -0.048  0.00  0.00    +0.000 C 
ATOM     29  C   UNL     1       0.544  -0.491  -1.418  0.00  0.00    +0.000 C 
ENDBRANCH   7  29
ENDBRANCH   1   9
BRANCH   5  30
ATOM     30  C   UNL     1      -0.971  -0.202  -1.351  0.00  0.00    +0.000 A 
ATOM     31  C   UNL     1      -1.451   1.121  -1.046  0.00  0.00    +0.000 A 
ATOM     32  C   UNL     1      -2.867   1.378  -0.987  0.00  0.00    +0.000 A 
ATOM     33  C   UNL     1      -3.803   0.311  -1.233  0.00  0.00    +0.000 A 
ATOM     34  C   UNL     1      -3.323  -1.012  -1.538  0.00  0.00    +0.000 A 
ATOM     35  C   UNL     1       0.445  -0.458  -1.410  0.00  0.00    +0.000 A 
BRANCH  32  36
ATOM     36  C   UNL     1      -3.374   2.774  -0.665  0.00  0.00    +0.000 C 
ATOM     37  O   UNL     1      -4.623   3.001  -0.612  0.00  0.00    +0.000 OA
ATOM     38  N   UNL     1      -2.418   3.863  -0.413  0.00  0.00    +0.000 N 
ATOM     39  H   UNL     1      -2.758   4.800  -0.197  0.00  0.00    +0.000 HD
BRANCH  38  40
ATOM     40  C   UNL     1      -0.973   3.601  -0.474  0.00  0.00    +0.000 C 
BRANCH  40  41
ATOM     41  C   UNL     1      -0.344   4.476  -1.546  0.00  0.00    +0.000 C 
BRANCH  41  42
ATOM     42  O   UNL     1      -0.565   5.843  -1.230  0.00  0.00    +0.000 OA
ATOM     43  H   UNL     1      -1.548   6.021  -1.189  0.00  0.00    +0.000 HD
ENDBRANCH  41  42
ENDBRANCH  40  41
ENDBRANCH  38  40
ENDBRANCH  32  36
BRANCH  34  44
ATOM     44  C   UNL     1      -1.828  -1.283  -1.600  0.00  0.00    +0.000 C 
ATOM     45  O   UNL     1      -1.002  -0.341  -1.383  0.00  0.00    +0.000 OA
ATOM     46  N   UNL     1      -1.338  -2.633  -1.912  0.00  0.00    +0.000 N 
ATOM     47  H   UNL     1      -0.335  -2.815  -1.954  0.00  0.00    +0.000 HD
BRANCH  46  48
ATOM     48  C   UNL     1      -2.294  -3.722  -2.163  0.00  0.00    +0.000 C 
BRANCH  48  49
ATOM     49  C   UNL     1      -2.078  -4.272  -3.564  0.00  0.00    +0.000 C 
BRANCH  49  50
ATOM     50  N   UNL     1      -0.706  -4.786  -3.682  0.00  0.00    +0.000 NA
ATOM     51  C   UNL     1       0.249  -3.698  -3.431  0.00  0.00    +0.000 C 
ATOM     52  C   UNL     1       0.034  -2.590  -4.449  0.00  0.00    +0.000 C 
ATOM     53  C   UNL     1      -1.385  -2.058  -4.327  0.00  0.00    +0.000 C 
ATOM     54  C   UNL     1      -1.600  -1.508  -2.926  0.00  0.00    +0.000 C 
ATOM     55  C   UNL     1      -0.498  -5.318  -5.037  0.00  0.00    +0.000 C 
ENDBRANCH  49  50
ENDBRANCH  48  49
ENDBRANCH  46  48
ENDBRANCH  34  44
ENDBRANCH   5  30
TORSDOF 13
