REMARK  Name = 
REMARK  6 active torsions:
REMARK  status: ('A' for Active; 'I' for Inactive)
REMARK    1  A    between atoms: C_1  and  C_2
REMARK    2  A    between atoms: C_10  and  C_11
REMARK    3  A    between atoms: C_11  and  C_12
REMARK    4  A    between atoms: C_12  and  N_13
REMARK    5  A    between atoms: C_14  and  C_16
REMARK    6  A    between atoms: N_20  and  C_21
REMARK                            x       y       z     vdW  Elec       q    Type
REMARK                         _______ _______ _______ _____ _____    ______ ____
ROOT
ATOM      1  N   UNL     1       1.470   1.840   0.867  0.00  0.00    +0.000 N 
ATOM      2  C   UNL     1       1.825   2.770  -0.215  0.00  0.00    +0.000 C 
ATOM      3  O   UNL     1       2.556   2.376  -1.177  0.00  0.00    +0.000 OA
ATOM      4  H   UNL     1       1.810   0.878   0.845  0.00  0.00    +0.000 HD
ENDROOT
BRANCH   2   5
ATOM      5  C   UNL     1       1.319   4.203  -0.181  0.00  0.00    +0.000 A 
ATOM      6  C   UNL     1       1.667   5.114  -1.241  0.00  0.00    +0.000 A 
ATOM      7  N   UNL     1       2.467   4.683  -2.296  0.00  0.00    +0.000 NA
ATOM      8  C   UNL     1       2.932   3.370  -2.326  0.00  0.00    +0.000 A 
ATOM      9  N   UNL     1       2.577   2.440  -1.245  0.00  0.00    +0.000 N 
ATOM     10  N   UNL     1       3.732   2.939  -3.381  0.00  0.00    +0.000 NA
ATOM     11  C   UNL     1       0.491   4.649   0.909  0.00  0.00    +0.000 A 
ATOM     12  H   UNL     1       1.990   2.756  -0.472  0.00  0.00    +0.000 HD
BRANCH   9  13
ATOM     13  C   UNL     1       3.067   1.054  -1.277  0.00  0.00    +0.000 A 
ATOM     14  C   UNL     1       3.895   0.608  -2.368  0.00  0.00    +0.000 A 
ATOM     15  C   UNL     1       4.242   1.520  -3.427  0.00  0.00    +0.000 A 
ATOM     16  C   UNL     1       5.070   1.074  -4.518  0.00  0.00    +0.000 A 
ATOM     17  C   UNL     1       5.418   1.985  -5.577  0.00  0.00    +0.000 A 
ATOM     18  O   UNL     1       4.995   3.183  -5.549  0.00  0.00    +0.000 OA
ATOM     19  N   UNL     1       2.730   0.173  -0.252  0.00  0.00    +0.000 N 
ATOM     20  H   UNL     1       2.144   0.488   0.520  0.00  0.00    +0.000 HD
ENDBRANCH   9  13
ENDBRANCH   2   5
BRANCH   1  21
ATOM     21  C   UNL     1       0.625   2.295   1.980  0.00  0.00    +0.000 C 
BRANCH  21  22
ATOM     22  C   UNL     1      -0.642   1.456   2.030  0.00  0.00    +0.000 C 
BRANCH  22  32
ATOM     23  C   UNL     1       1.060   0.063   0.049  0.00  0.00    +0.000 C 
ATOM     24  C   UNL     1       0.554  -0.682   1.273  0.00  0.00    +0.000 A 
ATOM     25  N   UNL     1       0.890  -2.020   1.463  0.00  0.00    +0.000 N 
ATOM     26  C   UNL     1       1.691  -2.676   0.531  0.00  0.00    +0.000 A 
ATOM     27  C   UNL     1       2.171  -1.970  -0.629  0.00  0.00    +0.000 A 
ATOM     28  C   UNL     1       1.823  -0.586  -0.825  0.00  0.00    +0.000 A 
ATOM     29  C   UNL     1       2.303   0.120  -1.985  0.00  0.00    +0.000 A 
ATOM     30  C   UNL     1       1.955   1.503  -2.181  0.00  0.00    +0.000 A 
ATOM     31  C   UNL     1       2.039  -4.060   0.727  0.00  0.00    +0.000 A 
ATOM     32  C   UNL     1      -0.274  -0.004   2.237  0.00  0.00    +0.000 A 
ATOM     33  H   UNL     1       0.550  -2.520   2.284  0.00  0.00    +0.000 HD
ENDBRANCH  22  32
ENDBRANCH  21  22
ENDBRANCH   1  21
TORSDOF 5
