REMARK  Name = 
REMARK  7 active torsions:
REMARK  status: ('A' for Active; 'I' for Inactive)
REMARK    1  A    between atoms: C_1  and  C_2
REMARK    2  A    between atoms: N_4  and  S_5
REMARK    3  A    between atoms: S_5  and  C_8
REMARK    4  A    between atoms: C_11  and  N_12
REMARK    5  A    between atoms: C_13  and  C_15
REMARK    6  A    between atoms: C_16  and  C_17
REMARK    7  A    between atoms: C_20  and  C_21
REMARK                            x       y       z     vdW  Elec       q    Type
REMARK                         _______ _______ _______ _____ _____    ______ ____
ROOT
ATOM      1  C   UNL     1       2.376  -1.728   1.148  0.00  0.00    +0.000 A 
ATOM      2  C   UNL     1       3.204  -2.904   1.075  0.00  0.00    +0.000 A 
ATOM      3  C   UNL     1       3.684  -3.523   2.283  0.00  0.00    +0.000 A 
ATOM      4  C   UNL     1       4.512  -4.699   2.210  0.00  0.00    +0.000 A 
ATOM      5  C   UNL     1       4.860  -5.256   0.928  0.00  0.00    +0.000 A 
ATOM      6  C   UNL     1       1.896  -1.109  -0.060  0.00  0.00    +0.000 A 
ENDROOT
BRANCH   4   7
ATOM      7  N   UNL     1       5.002  -5.331   3.444  0.00  0.00    +0.000 N 
ATOM      8  C   UNL     1       5.847  -6.531   3.369  0.00  0.00    +0.000 C 
ATOM      9  O   UNL     1       6.271  -7.078   4.435  0.00  0.00    +0.000 OA
ATOM     10  H   UNL     1       4.756  -4.936   4.351  0.00  0.00    +0.000 HD
BRANCH   8  11
ATOM     11  C   UNL     1       6.215  -7.119   2.016  0.00  0.00    +0.000 C 
ATOM     12  C   UNL     1       5.761  -6.534   0.875  0.00  0.00    +0.000 C 
BRANCH  12  13
ATOM     13  C   UNL     1       6.128  -7.122  -0.478  0.00  0.00    +0.000 A 
ATOM     14  C   UNL     1       6.956  -8.298  -0.551  0.00  0.00    +0.000 A 
ATOM     15  C   UNL     1       7.436  -8.918   0.657  0.00  0.00    +0.000 A 
ATOM     16  C   UNL     1       8.264 -10.094   0.584  0.00  0.00    +0.000 A 
ATOM     17  C   UNL     1       8.632 -10.681  -0.769  0.00  0.00    +0.000 C 
ATOM     18  O   UNL     1       5.680  -6.544  -1.607  0.00  0.00    +0.000 OA
ENDBRANCH  12  13
ENDBRANCH   8  11
ENDBRANCH   4   7
BRANCH   1  19
ATOM     19  S   UNL     1       1.939  -1.028   2.759  0.00  0.00    +0.000 S 
ATOM     20  O   UNL     1       3.214  -0.629   3.505  0.00  0.00    +0.000 OA
ATOM     21  O   UNL     1       1.174  -2.070   3.578  0.00  0.00    +0.000 OA
BRANCH  19  25
ATOM     22  C   UNL     1       1.079   0.050  -0.036  0.00  0.00    +0.000 C 
ATOM     23  C   UNL     1       0.572   0.828   1.167  0.00  0.00    +0.000 C 
ATOM     24  O   UNL     1      -0.159   1.854   0.999  0.00  0.00    +0.000 OA
ATOM     25  N   UNL     1       0.927   0.393   2.526  0.00  0.00    +0.000 N 
ATOM     26  H   UNL     1       0.587   0.915   3.334  0.00  0.00    +0.000 HD
ENDBRANCH  19  25
ENDBRANCH   1  19
TORSDOF 5
