REMARK  Name = 
REMARK  10 active torsions:
REMARK  status: ('A' for Active; 'I' for Inactive)
REMARK    1  A    between atoms: C_1  and  C_2
REMARK    2  A    between atoms: C_2  and  C_3
REMARK    3  A    between atoms: C_4  and  C_5
REMARK    4  A    between atoms: C_5  and  C_6
REMARK    5  A    between atoms: C_7  and  C_8
REMARK    6  A    between atoms: C_11  and  O_12
REMARK    7  A    between atoms: C_16  and  C_17
REMARK    8  A    between atoms: C_16  and  C_18
REMARK    9  A    between atoms: C_24  and  O_25
REMARK   10  A    between atoms: C_27  and  O_28
REMARK                            x       y       z     vdW  Elec       q    Type
REMARK                         _______ _______ _______ _____ _____    ______ ____
ROOT
ATOM      1  C   UNL     1       2.911   0.171  -3.512  0.00  0.00    +0.000 A 
ATOM      2  C   UNL     1       3.805  -0.747  -2.855  0.00  0.00    +0.000 A 
ATOM      3  O   UNL     1       4.926  -1.156  -3.476  0.00  0.00    +0.000 OA
ATOM      4  C   UNL     1       5.761  -2.013  -2.862  0.00  0.00    +0.000 A 
ATOM      5  C   UNL     1       6.961  -2.450  -3.527  0.00  0.00    +0.000 A 
ATOM      6  C   UNL     1       7.267  -1.970  -4.850  0.00  0.00    +0.000 A 
ATOM      7  C   UNL     1       6.373  -1.052  -5.507  0.00  0.00    +0.000 A 
ATOM      8  C   UNL     1       5.173  -0.614  -4.842  0.00  0.00    +0.000 A 
ATOM      9  C   UNL     1       5.455  -2.494  -1.539  0.00  0.00    +0.000 A 
ATOM     10  C   UNL     1       3.217   0.652  -4.835  0.00  0.00    +0.000 A 
ATOM     11  O   UNL     1       2.428   1.462  -5.415  0.00  0.00    +0.000 OA
ENDROOT
BRANCH   2  12
ATOM     12  C   UNL     1       3.482  -1.254  -1.459  0.00  0.00    +0.000 A 
ATOM     13  C   UNL     1       2.281  -0.817  -0.794  0.00  0.00    +0.000 A 
ATOM     14  C   UNL     1       1.387   0.101  -1.451  0.00  0.00    +0.000 A 
ATOM     15  C   UNL     1       0.187   0.538  -0.786  0.00  0.00    +0.000 A 
ATOM     16  C   UNL     1      -0.119   0.057   0.537  0.00  0.00    +0.000 A 
ATOM     17  C   UNL     1      -2.424   3.877   2.203  0.00  0.00    +0.000 A 
ATOM     18  O   UNL     1      -3.469   3.260   1.466  0.00  0.00    +0.000 OA
ATOM     19  C   UNL     1      -3.497   1.847   1.320  0.00  0.00    +0.000 C 
ATOM     20  C   UNL     1      -4.708   1.447   0.495  0.00  0.00    +0.000 C 
ATOM     21  C   UNL     1      -3.581   1.198   2.692  0.00  0.00    +0.000 C 
ATOM     22  C   UNL     1      -2.230   1.386   0.618  0.00  0.00    +0.000 C 
ATOM     23  C   UNL     1      -1.386   0.519   1.239  0.00  0.00    +0.000 C 
BRANCH  15  24
ATOM     24  O   UNL     1      -0.694   1.443  -1.434  0.00  0.00    +0.000 OA
ATOM     25  H   UNL     1      -0.482   1.777  -2.352  0.00  0.00    +0.000 HD
ENDBRANCH  15  24
ENDBRANCH   2  12
BRANCH   6  26
ATOM     26  O   UNL     1       8.451  -2.401  -5.506  0.00  0.00    +0.000 OA
ATOM     27  H   UNL     1       9.072  -3.038  -5.050  0.00  0.00    +0.000 HD
ENDBRANCH   6  26
BRANCH   8  28
ATOM     28  O   UNL     1       4.871  -1.088  -3.538  0.00  0.00    +0.000 OA
ATOM     29  H   UNL     1       4.038  -0.785  -3.076  0.00  0.00    +0.000 HD
ENDBRANCH   8  28
BRANCH   1  30
ATOM     30  C   UNL     1       1.644   0.632  -2.810  0.00  0.00    +0.000 C 
BRANCH  30  34
ATOM     31  C   UNL     1       0.948   0.026  -0.082  0.00  0.00    +0.000 C 
ATOM     32  C   UNL     1       0.441  -0.858  -1.210  0.00  0.00    +0.000 C 
ATOM     33  C   UNL     1      -0.432  -2.062  -0.898  0.00  0.00    +0.000 C 
ATOM     34  C   UNL     1       0.770  -0.572  -2.498  0.00  0.00    +0.000 C 
ENDBRANCH  30  34
ENDBRANCH   1  30
TORSDOF 6
