REMARK  Name = 
REMARK  5 active torsions:
REMARK  status: ('A' for Active; 'I' for Inactive)
REMARK    1  A    between atoms: C_1  and  O_2
REMARK    2  A    between atoms: O_2  and  C_3
REMARK    3  A    between atoms: C_12  and  C_13
REMARK    4  A    between atoms: C_22  and  C_23
REMARK    5  A    between atoms: C_22  and  C_24
REMARK                            x       y       z     vdW  Elec       q    Type
REMARK                         _______ _______ _______ _____ _____    ______ ____
ROOT
ATOM      1  C   UNL     1       0.925   1.479   2.042  0.00  0.00    +0.000 A 
ATOM      2  C   UNL     1       0.445   2.660   2.712  0.00  0.00    +0.000 A 
ATOM      3  C   UNL     1      -0.383   3.603   2.005  0.00  0.00    +0.000 A 
ATOM      4  C   UNL     1      -0.731   3.364   0.628  0.00  0.00    +0.000 A 
ATOM      5  C   UNL     1      -0.251   2.184  -0.042  0.00  0.00    +0.000 A 
ATOM      6  C   UNL     1      -1.203  -0.405  -2.864  0.00  0.00    +0.000 A 
ATOM      7  C   UNL     1      -0.987   0.079  -1.439  0.00  0.00    +0.000 C 
ATOM      8  O   UNL     1      -1.513   1.169  -1.052  0.00  0.00    +0.000 OA
ATOM      9  C   UNL     1      -0.143  -0.741  -0.478  0.00  0.00    +0.000 C 
ATOM     10  C   UNL     1       1.039   0.090  -0.006  0.00  0.00    +0.000 C 
ATOM     11  O   UNL     1       0.566   1.254   0.655  0.00  0.00    +0.000 OA
ATOM     12  C   UNL     1      -1.604   4.360  -0.118  0.00  0.00    +0.000 C 
ATOM     13  C   UNL     1      -2.058   5.475   0.515  0.00  0.00    +0.000 C 
ATOM     14  C   UNL     1      -2.932   6.470  -0.231  0.00  0.00    +0.000 C 
ATOM     15  C   UNL     1      -2.248   7.827  -0.255  0.00  0.00    +0.000 C 
ATOM     16  C   UNL     1      -3.147   5.987  -1.656  0.00  0.00    +0.000 C 
ATOM     17  O   UNL     1      -0.856   4.767   2.666  0.00  0.00    +0.000 OA
ENDROOT
BRANCH  10  18
ATOM     18  C   UNL     1       1.884   0.494  -1.203  0.00  0.00    +0.000 A 
ATOM     19  C   UNL     1       1.304   1.283  -2.260  0.00  0.00    +0.000 A 
ATOM     20  C   UNL     1      -0.076   1.687  -2.182  0.00  0.00    +0.000 A 
ATOM     21  C   UNL     1      -0.656   2.476  -3.239  0.00  0.00    +0.000 A 
ATOM     22  C   UNL     1      -2.036   2.880  -3.161  0.00  0.00    +0.000 A 
ATOM     23  C   UNL     1       3.264   0.090  -1.281  0.00  0.00    +0.000 A 
ENDBRANCH  10  18
BRANCH   1  25
ATOM     24  C   UNL     1       1.056   0.080   0.023  0.00  0.00    +0.000 C 
ATOM     25  O   UNL     1       0.582   1.244   0.684  0.00  0.00    +0.000 OA
ENDBRANCH   1  25
TORSDOF 2
