REMARK  Name = 
REMARK  3 active torsions:
REMARK  status: ('A' for Active; 'I' for Inactive)
REMARK    1  A    between atoms: C_1  and  C_2
REMARK    2  A    between atoms: C_6  and  C_7
REMARK    3  A    between atoms: C_7  and  C_9
REMARK                            x       y       z     vdW  Elec       q    Type
REMARK                         _______ _______ _______ _____ _____    ______ ____
ROOT
ATOM      1  C   UNL     1       1.017   0.095  -0.028  0.00  0.00    +0.000 C 
ATOM      2  C   UNL     1       0.510  -0.717  -1.209  0.00  0.00    +0.000 A 
ATOM      3  O   UNL     1       0.835  -0.355  -2.463  0.00  0.00    +0.000 OA
ATOM      4  C   UNL     1       0.387  -1.073  -3.509  0.00  0.00    +0.000 A 
ATOM      5  C   UNL     1       0.735  -0.685  -4.851  0.00  0.00    +0.000 A 
ATOM      6  C   UNL     1      -0.318  -1.874  -0.985  0.00  0.00    +0.000 A 
ATOM      7  C   UNL     1       0.228  -1.497  -6.032  0.00  0.00    +0.000 C 
ATOM      8  O   UNL     1      -0.503  -2.518  -5.835  0.00  0.00    +0.000 OA
ATOM      9  C   UNL     1       0.595  -1.088  -7.449  0.00  0.00    +0.000 C 
ATOM     10  O   UNL     1       1.326  -0.067  -7.647  0.00  0.00    +0.000 OA
ATOM     11  C   UNL     1       0.089  -1.899  -8.630  0.00  0.00    +0.000 A 
ATOM     12  C   UNL     1       0.436  -1.511  -9.973  0.00  0.00    +0.000 A 
ATOM     13  C   UNL     1       1.264  -0.354 -10.197  0.00  0.00    +0.000 A 
ATOM     14  C   UNL     1       1.612   0.034 -11.539  0.00  0.00    +0.000 A 
ATOM     15  C   UNL     1       2.440   1.190 -11.763  0.00  0.00    +0.000 A 
ATOM     16  C   UNL     1      -0.487  -2.294  -3.273  0.00  0.00    +0.000 A 
ENDROOT
BRANCH   6  17
ATOM     17  C   UNL     1      -0.685  -2.284   0.432  0.00  0.00    +0.000 C 
ATOM     18  O   UNL     1      -0.261  -1.605   1.419  0.00  0.00    +0.000 OA
BRANCH  17  19
ATOM     19  C   UNL     1      -1.559  -3.505   0.668  0.00  0.00    +0.000 A 
ATOM     20  C   UNL     1      -1.907  -3.893   2.010  0.00  0.00    +0.000 A 
ATOM     21  C   UNL     1      -1.427  -3.123   3.129  0.00  0.00    +0.000 A 
ATOM     22  C   UNL     1      -1.775  -3.511   4.472  0.00  0.00    +0.000 A 
ATOM     23 CL   UNL     1      -1.181  -2.561   5.855  0.00  0.00    +0.000 Cl
ATOM     24  C   UNL     1      -2.603  -4.668   4.696  0.00  0.00    +0.000 A 
ATOM     25  C   UNL     1      -2.039  -4.274  -0.451  0.00  0.00    +0.000 A 
ENDBRANCH  17  19
ENDBRANCH   6  17
TORSDOF 2
