REMARK  Name = 
REMARK  3 active torsions:
REMARK  status: ('A' for Active; 'I' for Inactive)
REMARK    1  A    between atoms: C_1  and  O_2
REMARK    2  A    between atoms: O_2  and  C_3
REMARK    3  A    between atoms: C_12  and  C_13
REMARK                            x       y       z     vdW  Elec       q    Type
REMARK                         _______ _______ _______ _____ _____    ______ ____
ROOT
ATOM      1  C   UNL     1       0.782  -2.338  -0.849  0.00  0.00    +0.000 A 
ATOM      2  C   UNL     1       0.302  -3.691  -0.732  0.00  0.00    +0.000 A 
ATOM      3  C   UNL     1      -0.526  -4.068   0.384  0.00  0.00    +0.000 A 
ATOM      4  O   UNL     1      -0.851  -3.156   1.319  0.00  0.00    +0.000 OA
ATOM      5  C   UNL     1      -1.625  -3.508   2.362  0.00  0.00    +0.000 A 
ATOM      6  C   UNL     1      -2.105  -4.861   2.478  0.00  0.00    +0.000 A 
ATOM      7  C   UNL     1      -1.006  -5.421   0.501  0.00  0.00    +0.000 A 
ATOM      8  C   UNL     1      -0.658  -6.397  -0.500  0.00  0.00    +0.000 A 
ATOM      9  O   UNL     1      -1.107  -7.661  -0.391  0.00  0.00    +0.000 OA
ATOM     10  C   UNL     1      -0.782  -8.572  -1.325  0.00  0.00    +0.000 A 
ATOM     11  C   UNL     1      -1.262  -9.925  -1.209  0.00  0.00    +0.000 A 
ATOM     12  C   UNL     1      -2.090 -10.302  -0.092  0.00  0.00    +0.000 A 
ATOM     13  O   UNL     1      -2.397  -9.441   0.790  0.00  0.00    +0.000 OA
ATOM     14  C   UNL     1       0.170  -6.020  -1.616  0.00  0.00    +0.000 A 
ENDROOT
BRANCH  10  15
ATOM     15  C   UNL     1       0.092  -8.175  -2.504  0.00  0.00    +0.000 A 
ATOM     16  C   UNL     1       0.572  -6.822  -2.620  0.00  0.00    +0.000 A 
ATOM     17  C   UNL     1       0.224  -5.846  -1.620  0.00  0.00    +0.000 A 
ATOM     18  C   UNL     1       0.704  -4.493  -1.736  0.00  0.00    +0.000 A 
ATOM     19  C   UNL     1       0.356  -3.517  -0.736  0.00  0.00    +0.000 A 
ATOM     20  C   UNL     1       0.440  -9.151  -3.504  0.00  0.00    +0.000 A 
ENDBRANCH  10  15
BRANCH   1  22
ATOM     21  C   UNL     1       0.912  -0.042   0.023  0.00  0.00    +0.000 C 
ATOM     22  O   UNL     1       0.439  -1.376   0.137  0.00  0.00    +0.000 OA
ENDBRANCH   1  22
TORSDOF 2
