REMARK  Name = 
REMARK  7 active torsions:
REMARK  status: ('A' for Active; 'I' for Inactive)
REMARK    1  A    between atoms: C_1  and  N_2
REMARK    2  A    between atoms: N_5  and  S_6
REMARK    3  A    between atoms: S_6  and  C_9
REMARK    4  A    between atoms: C_12  and  S_13
REMARK    5  A    between atoms: S_13  and  C_14
REMARK    6  A    between atoms: N_18  and  C_19
REMARK    7  A    between atoms: C_25  and  N_26
REMARK                            x       y       z     vdW  Elec       q    Type
REMARK                         _______ _______ _______ _____ _____    ______ ____
ROOT
ATOM      1  C   UNL     1       1.045   5.026  -1.891  0.00  0.00    +0.000 A 
ATOM      2  C   UNL     1       0.697   6.423  -1.914  0.00  0.00    +0.000 A 
ATOM      3  C   UNL     1      -0.131   6.977  -0.874  0.00  0.00    +0.000 A 
ATOM      4  C   UNL     1      -0.479   8.374  -0.897  0.00  0.00    +0.000 A 
ATOM      5  C   UNL     1       0.001   9.218  -1.960  0.00  0.00    +0.000 A 
ATOM      6  C   UNL     1       1.873   4.473  -2.932  0.00  0.00    +0.000 A 
ENDROOT
BRANCH   1   7
ATOM      7  S   UNL     1       0.441   3.965  -0.554  0.00  0.00    +0.000 S 
ATOM      8  O   UNL     1      -1.089   3.965  -0.554  0.00  0.00    +0.000 OA
ATOM      9  O   UNL     1       0.951   4.496   0.788  0.00  0.00    +0.000 OA
BRANCH   7  14
ATOM     10  C   UNL     1       1.045   0.045   0.077  0.00  0.00    +0.000 C 
ATOM     11  N   UNL     1       0.555  -0.465  -1.211  0.00  0.00    +0.000 NA
ATOM     12  C   UNL     1       1.045   0.397  -2.297  0.00  0.00    +0.000 C 
ATOM     13  C   UNL     1       0.538   1.815  -2.087  0.00  0.00    +0.000 C 
ATOM     14  N   UNL     1       1.028   2.324  -0.798  0.00  0.00    +0.000 NA
ATOM     15  C   UNL     1       0.538   1.462   0.288  0.00  0.00    +0.000 C 
ATOM     16  C   UNL     1      -0.915  -0.465  -1.211  0.00  0.00    +0.000 C 
ENDBRANCH   7  14
ENDBRANCH   1   7
BRANCH   5  17
ATOM     17  N   UNL     1      -0.354  10.644  -1.984  0.00  0.00    +0.000 N 
ATOM     18  O   UNL     1      -1.059  11.115  -1.098  0.00  0.00    +0.000 OA
ATOM     19  O   UNL     1       0.102  11.447  -2.996  0.00  0.00    +0.000 OA
ENDBRANCH   5  17
BRANCH   4  20
ATOM     20  S   UNL     1      -1.520   9.069   0.411  0.00  0.00    +0.000 S 
BRANCH  20  21
ATOM     21  C   UNL     1      -1.957   7.768   1.590  0.00  0.00    +0.000 A 
ATOM     22  N   UNL     1      -2.758   8.065   2.690  0.00  0.00    +0.000 NA
ATOM     23  N   UNL     1      -3.083   7.098   3.567  0.00  0.00    +0.000 NA
ATOM     24  N   UNL     1      -3.856   7.385   4.629  0.00  0.00    +0.000 NA
ATOM     25  N   UNL     1      -1.493   6.469   1.397  0.00  0.00    +0.000 N 
BRANCH  25  26
ATOM     26  C   UNL     1      -0.648   6.155   0.236  0.00  0.00    +0.000 A 
ATOM     27  C   UNL     1      -0.168   4.812   0.037  0.00  0.00    +0.000 A 
ATOM     28  C   UNL     1      -0.515   3.776   0.975  0.00  0.00    +0.000 A 
ATOM     29  C   UNL     1      -0.035   2.433   0.776  0.00  0.00    +0.000 A 
ATOM     30  C   UNL     1      -0.383   1.397   1.714  0.00  0.00    +0.000 A 
ATOM     31  C   UNL     1      -0.300   7.191  -0.702  0.00  0.00    +0.000 A 
ENDBRANCH  25  26
ENDBRANCH  20  21
ENDBRANCH   4  20
TORSDOF 6
