REMARK  Name = 
REMARK  6 active torsions:
REMARK  status: ('A' for Active; 'I' for Inactive)
REMARK    1  A    between atoms: C_2  and  C_19
REMARK    2  A    between atoms: N_3  and  N_4
REMARK    3  A    between atoms: N_4  and  C_5
REMARK    4  A    between atoms: C_5  and  N_7
REMARK    5  A    between atoms: C_8  and  C_10
REMARK    6  A    between atoms: C_15  and  N_16
REMARK                            x       y       z     vdW  Elec       q    Type
REMARK                         _______ _______ _______ _____ _____    ______ ____
ROOT
ATOM      1  C   UNL     1       5.120   0.785   2.510  0.00  0.00    +0.000 C 
ATOM      2  S   UNL     1       6.740   0.785   2.510  0.00  0.00    +0.000 S 
ENDROOT
BRANCH   1   3
ATOM      3  N   UNL     1       4.385   1.148   3.730  0.00  0.00    +0.000 N 
ATOM      4  C   UNL     1       2.915   1.148   3.730  0.00  0.00    +0.000 C 
ATOM      5  O   UNL     1       2.279   1.462   4.785  0.00  0.00    +0.000 OA
ATOM      6  H   UNL     1       4.895   1.400   4.576  0.00  0.00    +0.000 HD
BRANCH   4   7
ATOM      7  C   UNL     1       2.155   0.773   2.468  0.00  0.00    +0.000 A 
ATOM      8  C   UNL     1       0.715   0.773   2.468  0.00  0.00    +0.000 A 
ATOM      9  C   UNL     1      -0.005   1.129   3.664  0.00  0.00    +0.000 A 
ATOM     10  C   UNL     1      -1.446   1.129   3.664  0.00  0.00    +0.000 A 
ATOM     11  C   UNL     1      -2.166   1.484   4.859  0.00  0.00    +0.000 A 
ATOM     12  C   UNL     1       2.875   0.417   1.273  0.00  0.00    +0.000 A 
BRANCH  12  13
ATOM     13  N   UNL     1       4.345   0.417   1.273  0.00  0.00    +0.000 N 
ATOM     14  O   UNL     1       4.958   0.720   2.290  0.00  0.00    +0.000 OA
ATOM     15  O   UNL     1       5.030   0.079   0.135  0.00  0.00    +0.000 OA
ENDBRANCH  12  13
ENDBRANCH   4   7
ENDBRANCH   1   3
BRANCH   1  16
ATOM     16  N   UNL     1       4.385   0.422   1.289  0.00  0.00    +0.000 N 
ATOM     17  H   UNL     1       4.895   0.170   0.443  0.00  0.00    +0.000 HD
BRANCH  16  20
ATOM     18  O   UNL     1       0.959   0.059   0.069  0.00  0.00    +0.000 OA
ATOM     19  C   UNL     1       2.230   0.059   0.069  0.00  0.00    +0.000 C 
ATOM     20  N   UNL     1       2.965   0.422   1.289  0.00  0.00    +0.000 N 
ATOM     21  H   UNL     1       2.455   0.674   2.136  0.00  0.00    +0.000 HD
BRANCH  19  22
ATOM     22  C   UNL     1       2.990  -0.316  -1.192  0.00  0.00    +0.000 A 
ATOM     23  C   UNL     1       4.430  -0.316  -1.192  0.00  0.00    +0.000 A 
ATOM     24  C   UNL     1       5.150   0.040   0.003  0.00  0.00    +0.000 A 
ATOM     25  C   UNL     1       6.590   0.040   0.003  0.00  0.00    +0.000 A 
ATOM     26 CL   UNL     1       7.480   0.479   1.481  0.00  0.00    +0.000 Cl
ATOM     27  C   UNL     1       7.310  -0.316  -1.192  0.00  0.00    +0.000 A 
ATOM     28  C   UNL     1       2.270  -0.672  -2.388  0.00  0.00    +0.000 A 
ATOM     29 CL   UNL     1       0.490  -0.672  -2.388  0.00  0.00    +0.000 Cl
ENDBRANCH  19  22
ENDBRANCH  16  20
ENDBRANCH   1  16
TORSDOF 6
