REMARK  Name = 
REMARK  11 active torsions:
REMARK  status: ('A' for Active; 'I' for Inactive)
REMARK    1  A    between atoms: C_1  and  O_2
REMARK    2  A    between atoms: O_2  and  C_3
REMARK    3  A    between atoms: C_8  and  C_9
REMARK    4  A    between atoms: C_12  and  O_13
REMARK    5  A    between atoms: C_20  and  O_21
REMARK    6  A    between atoms: O_21  and  C_22
REMARK    7  A    between atoms: C_24  and  C_25
REMARK    8  A    between atoms: C_25  and  O_26
REMARK    9  A    between atoms: C_27  and  O_28
REMARK   10  A    between atoms: C_29  and  O_30
REMARK   11  A    between atoms: C_31  and  O_32
REMARK                            x       y       z     vdW  Elec       q    Type
REMARK                         _______ _______ _______ _____ _____    ______ ____
ROOT
ATOM      1  C   UNL     1       0.774   1.619  -1.882  0.00  0.00    +0.000 A 
ATOM      2  C   UNL     1       0.294   1.964  -3.195  0.00  0.00    +0.000 A 
ATOM      3  C   UNL     1      -0.534   1.039  -3.925  0.00  0.00    +0.000 A 
ATOM      4  C   UNL     1      -0.882  -0.231  -3.342  0.00  0.00    +0.000 A 
ATOM      5  O   UNL     1      -0.458  -0.535  -2.183  0.00  0.00    +0.000 OA
ATOM      6  C   UNL     1      -1.710  -1.156  -4.072  0.00  0.00    +0.000 A 
ATOM      7  C   UNL     1      -2.058  -2.426  -3.489  0.00  0.00    +0.000 A 
ATOM      8  O   UNL     1      -1.609  -2.748  -2.262  0.00  0.00    +0.000 OA
ATOM      9  C   UNL     1      -1.014   1.384  -5.238  0.00  0.00    +0.000 A 
ATOM     10  C   UNL     1      -0.666   2.654  -5.822  0.00  0.00    +0.000 A 
ATOM     11  C   UNL     1       1.602   2.544  -1.152  0.00  0.00    +0.000 A 
ENDROOT
BRANCH   6  12
ATOM     12  C   UNL     1      -2.216  -0.792  -5.458  0.00  0.00    +0.000 A 
ATOM     13  C   UNL     1      -1.869   0.478  -6.041  0.00  0.00    +0.000 A 
ATOM     14  C   UNL     1      -1.041   1.403  -5.311  0.00  0.00    +0.000 A 
ATOM     15  C   UNL     1      -0.693   2.673  -5.895  0.00  0.00    +0.000 A 
ATOM     16  C   UNL     1      -1.173   3.018  -7.208  0.00  0.00    +0.000 A 
ATOM     17  C   UNL     1      -3.044  -1.717  -6.188  0.00  0.00    +0.000 A 
BRANCH  15  18
ATOM     18  O   UNL     1       0.124   3.585  -5.175  0.00  0.00    +0.000 OA
ATOM     19  H   UNL     1       0.457   3.346  -4.263  0.00  0.00    +0.000 HD
ENDBRANCH  15  18
ENDBRANCH   6  12
BRANCH   1  21
ATOM     20  C   UNL     1       0.905   0.027  -0.012  0.00  0.00    +0.000 C 
ATOM     21  O   UNL     1       0.431   0.367  -1.307  0.00  0.00    +0.000 OA
ENDBRANCH   1  21
BRANCH  11  22
ATOM     22  O   UNL     1       2.076   2.204   0.143  0.00  0.00    +0.000 OA
BRANCH  22  23
ATOM     23  C   UNL     1       2.892   3.117   0.863  0.00  0.00    +0.000 C 
ATOM     24  O   UNL     1       1.396   5.722   4.190  0.00  0.00    +0.000 OA
ATOM     25  C   UNL     1       2.106   4.509   3.988  0.00  0.00    +0.000 C 
ATOM     26  C   UNL     1       1.232   3.533   3.217  0.00  0.00    +0.000 C 
ATOM     27  C   UNL     1       0.865   4.135   1.871  0.00  0.00    +0.000 C 
ATOM     28  C   UNL     1       2.132   4.415   1.079  0.00  0.00    +0.000 C 
BRANCH  26  29
ATOM     29  O   UNL     1       0.049   3.271   3.957  0.00  0.00    +0.000 OA
ATOM     30  H   UNL     1      -0.451   4.125   4.100  0.00  0.00    +0.000 HD
ENDBRANCH  26  29
BRANCH  27  31
ATOM     31  O   UNL     1       0.049   3.223   1.151  0.00  0.00    +0.000 OA
ATOM     32  H   UNL     1       0.799   3.882   1.097  0.00  0.00    +0.000 HD
ENDBRANCH  27  31
BRANCH  28  33
ATOM     33  O   UNL     1       2.948   5.327   1.799  0.00  0.00    +0.000 OA
ATOM     34  H   UNL     1       3.190   4.931   2.684  0.00  0.00    +0.000 HD
ENDBRANCH  28  33
BRANCH  25  35
ATOM     35  C   UNL     1       3.373   4.789   3.196  0.00  0.00    +0.000 C 
BRANCH  35  36
ATOM     36  O   UNL     1       3.053   5.270   1.898  0.00  0.00    +0.000 OA
ATOM     37  H   UNL     1       2.512   4.584   1.412  0.00  0.00    +0.000 HD
ENDBRANCH  35  36
ENDBRANCH  25  35
ENDBRANCH  22  23
ENDBRANCH  11  22
TORSDOF 10
