REMARK  Name = 
REMARK  13 active torsions:
REMARK  status: ('A' for Active; 'I' for Inactive)
REMARK    1  A    between atoms: C_1  and  O_2
REMARK    2  A    between atoms: O_2  and  C_3
REMARK    3  A    between atoms: C_5  and  N_6
REMARK    4  A    between atoms: N_13  and  C_14
REMARK    5  A    between atoms: C_15  and  C_16
REMARK    6  A    between atoms: C_20  and  C_21
REMARK    7  A    between atoms: C_34  and  O_35
REMARK    8  A    between atoms: O_35  and  C_36
REMARK    9  A    between atoms: C_37  and  O_38
REMARK   10  A    between atoms: O_38  and  C_39
REMARK   11  A    between atoms: C_39  and  C_40
REMARK   12  A    between atoms: C_40  and  N_41
REMARK   13  A    between atoms: N_44  and  C_45
REMARK                            x       y       z     vdW  Elec       q    Type
REMARK                         _______ _______ _______ _____ _____    ______ ____
ROOT
ATOM      1  N   UNL     1      -0.970   3.427  -4.120  0.00  0.00    +0.000 N 
ATOM      2  C   UNL     1      -1.816   2.901  -5.202  0.00  0.00    +0.000 A 
ATOM      3  N   UNL     1      -2.152   1.550  -5.229  0.00  0.00    +0.000 NA
ATOM      4  C   UNL     1      -2.953   1.052  -6.254  0.00  0.00    +0.000 A 
ATOM      5  C   UNL     1      -3.433   1.935  -7.286  0.00  0.00    +0.000 A 
ATOM      6  C   UNL     1      -3.085   3.332  -7.258  0.00  0.00    +0.000 A 
ATOM      7  O   UNL     1      -2.354   3.786  -6.322  0.00  0.00    +0.000 OA
ATOM      8  N   UNL     1      -3.549   4.185  -8.256  0.00  0.00    +0.000 N 
ATOM      9  C   UNL     1      -3.213   5.537  -8.229  0.00  0.00    +0.000 A 
ATOM     10  N   UNL     1      -3.677   6.390  -9.227  0.00  0.00    +0.000 NA
ATOM     11  C   UNL     1      -3.341   7.741  -9.200  0.00  0.00    +0.000 A 
ATOM     12  C   UNL     1      -3.821   8.624 -10.232  0.00  0.00    +0.000 A 
ATOM     13  C   UNL     1      -4.649   8.109 -11.292  0.00  0.00    +0.000 A 
ATOM     14  C   UNL     1      -5.129   8.991 -12.324  0.00  0.00    +0.000 A 
ATOM     15  C   UNL     1      -5.957   8.477 -13.384  0.00  0.00    +0.000 A 
ATOM     16  C   UNL     1      -2.513   8.256  -8.140  0.00  0.00    +0.000 A 
ATOM     17  N   UNL     1      -2.412   6.034  -7.204  0.00  0.00    +0.000 N 
ATOM     18  C   UNL     1      -4.261   1.420  -8.346  0.00  0.00    +0.000 A 
ATOM     19  N   UNL     1      -2.280   3.755  -6.200  0.00  0.00    +0.000 NA
ATOM     20  H   UNL     1      -0.724   4.416  -4.100  0.00  0.00    +0.000 HD
ENDROOT
BRANCH   8  21
ATOM     21  C   UNL     1      -4.394   3.660  -9.338  0.00  0.00    +0.000 A 
ATOM     22  C   UNL     1      -4.742   2.262  -9.366  0.00  0.00    +0.000 A 
ATOM     23  C   UNL     1      -4.236   1.331  -8.277  0.00  0.00    +0.000 C 
ATOM     24  C   UNL     1      -5.570   1.748 -10.426  0.00  0.00    +0.000 A 
ATOM     25  C   UNL     1      -6.050   2.630 -11.458  0.00  0.00    +0.000 A 
ATOM     26  C   UNL     1      -6.878   2.115 -12.518  0.00  0.00    +0.000 A 
ATOM     27  C   UNL     1      -4.874   4.542 -10.370  0.00  0.00    +0.000 A 
ATOM     28  C   UNL     1      -4.507   6.017 -10.340  0.00  0.00    +0.000 C 
ENDBRANCH   8  21
BRANCH   1  31
ATOM     29  C   UNL     1       0.828   2.158  -0.974  0.00  0.00    +0.000 A 
ATOM     30  C   UNL     1       0.348   3.041  -2.006  0.00  0.00    +0.000 A 
ATOM     31  C   UNL     1      -0.480   2.526  -3.066  0.00  0.00    +0.000 A 
ATOM     32  C   UNL     1      -0.828   1.129  -3.094  0.00  0.00    +0.000 A 
ATOM     33  C   UNL     1      -0.348   0.246  -2.062  0.00  0.00    +0.000 A 
ATOM     34  C   UNL     1       1.656   2.673   0.086  0.00  0.00    +0.000 A 
BRANCH  29  36
ATOM     35  C   UNL     1       0.958  -0.089   0.016  0.00  0.00    +0.000 C 
ATOM     36  O   UNL     1       0.485   0.781  -1.002  0.00  0.00    +0.000 OA
ENDBRANCH  29  36
BRANCH  33  37
ATOM     37  O   UNL     1       0.468   0.754  -1.017  0.00  0.00    +0.000 OA
ATOM     38  C   UNL     1       0.941  -0.116   0.000  0.00  0.00    +0.000 C 
ENDBRANCH  33  37
BRANCH  34  39
ATOM     39  O   UNL     1       2.129   1.803   1.103  0.00  0.00    +0.000 OA
BRANCH  39  40
ATOM     40  C   UNL     1       2.945   2.311   2.148  0.00  0.00    +0.000 C 
BRANCH  40  41
ATOM     41  C   UNL     1       4.212   2.908   1.557  0.00  0.00    +0.000 C 
BRANCH  41  42
ATOM     42  N   UNL     1       3.857   3.999   0.639  0.00  0.00    +0.000 NA
ATOM     43  C   UNL     1       3.012   3.474  -0.443  0.00  0.00    +0.000 C 
ATOM     44  C   UNL     1       3.772   2.399  -1.203  0.00  0.00    +0.000 C 
ATOM     45  N   UNL     1       4.127   1.308  -0.285  0.00  0.00    +0.000 NA
ATOM     46  C   UNL     1       4.862   0.268  -1.020  0.00  0.00    +0.000 C 
ATOM     47  C   UNL     1       4.972   1.833   0.797  0.00  0.00    +0.000 C 
ATOM     48  C   UNL     1       5.082   4.577   0.067  0.00  0.00    +0.000 C 
ENDBRANCH  41  42
ENDBRANCH  40  41
ENDBRANCH  39  40
ENDBRANCH  34  39
ENDBRANCH   1  31
TORSDOF 8
