REMARK  Name = 
REMARK  7 active torsions:
REMARK  status: ('A' for Active; 'I' for Inactive)
REMARK    1  A    between atoms: C_1  and  C_2
REMARK    2  A    between atoms: C_5  and  N_6
REMARK    3  A    between atoms: C_7  and  C_9
REMARK    4  A    between atoms: C_9  and  N_10
REMARK    5  A    between atoms: N_10  and  C_11
REMARK    6  A    between atoms: C_12  and  C_14
REMARK    7  A    between atoms: C_14  and  N_15
REMARK                            x       y       z     vdW  Elec       q    Type
REMARK                         _______ _______ _______ _____ _____    ______ ____
ROOT
ATOM      1  N   UNL     1       3.259   6.133   2.700  0.00  0.00    +0.000 N 
ATOM      2  C   UNL     1       2.303   6.419   1.620  0.00  0.00    +0.000 C 
ATOM      3  C   UNL     1       4.704   6.201   2.440  0.00  0.00    +0.000 C 
ATOM      4  O   UNL     1       5.530   5.954   3.374  0.00  0.00    +0.000 OA
ENDROOT
BRANCH   1   5
ATOM      5  C   UNL     1       2.769   5.778   4.040  0.00  0.00    +0.000 C 
BRANCH   5   7
ATOM      6  N   UNL     1       2.920   3.233   3.588  0.00  0.00    +0.000 N 
ATOM      7  C   UNL     1       3.275   4.395   4.415  0.00  0.00    +0.000 C 
ATOM      8  O   UNL     1       4.006   4.244   5.444  0.00  0.00    +0.000 OA
ATOM      9  H   UNL     1       3.260   2.305   3.840  0.00  0.00    +0.000 HD
BRANCH   6  14
ATOM     10  C   UNL     1       1.058  -0.080  -0.013  0.00  0.00    +0.000 C 
ATOM     11  C   UNL     1       0.551   1.303  -0.388  0.00  0.00    +0.000 A 
ATOM     12  C   UNL     1       0.899   2.441   0.422  0.00  0.00    +0.000 A 
ATOM     13  C   UNL     1       1.727   2.270   1.588  0.00  0.00    +0.000 A 
ATOM     14  C   UNL     1       2.075   3.408   2.398  0.00  0.00    +0.000 A 
ATOM     15  C   UNL     1       1.595   4.719   2.042  0.00  0.00    +0.000 A 
ATOM     16  C   UNL     1      -0.277   1.474  -1.554  0.00  0.00    +0.000 A 
ENDBRANCH   6  14
ENDBRANCH   5   7
ENDBRANCH   1   5
BRANCH   3  17
ATOM     17  C   UNL     1       5.211   6.568   1.055  0.00  0.00    +0.000 C 
BRANCH  17  18
ATOM     18  N   UNL     1       4.721   5.585   0.078  0.00  0.00    +0.000 N 
ATOM     19  N   UNL     1       5.046   4.286   0.210  0.00  0.00    +0.000 NA
ATOM     20  C   UNL     1       4.581   3.355  -0.716  0.00  0.00    +0.000 A 
ATOM     21  C   UNL     1       3.753   3.782  -1.814  0.00  0.00    +0.000 A 
ATOM     22 CL   UNL     1       3.160   2.591  -2.997  0.00  0.00    +0.000 Cl
ATOM     23  C   UNL     1       3.405   5.172  -1.955  0.00  0.00    +0.000 A 
ATOM     24 CL   UNL     1       2.382   5.700  -3.313  0.00  0.00    +0.000 Cl
ATOM     25  C   UNL     1       3.920   5.998  -0.984  0.00  0.00    +0.000 A 
ATOM     26  O   UNL     1       3.613   7.225  -1.109  0.00  0.00    +0.000 OA
ENDBRANCH  17  18
ENDBRANCH   3  17
TORSDOF 5
