REMARK  Name = 
REMARK  6 active torsions:
REMARK  status: ('A' for Active; 'I' for Inactive)
REMARK    1  A    between atoms: C_2  and  C_3
REMARK    2  A    between atoms: C_3  and  C_4
REMARK    3  A    between atoms: C_6  and  C_7
REMARK    4  A    between atoms: C_6  and  C_9
REMARK    5  A    between atoms: C_12  and  N_13
REMARK    6  A    between atoms: N_13  and  C_14
REMARK                            x       y       z     vdW  Elec       q    Type
REMARK                         _______ _______ _______ _____ _____    ______ ____
ROOT
ATOM      1  C   UNL     1       5.917   0.578   1.009  0.00  0.00    +0.000 A 
ATOM      2  C   UNL     1       6.637   1.126   2.129  0.00  0.00    +0.000 A 
ATOM      3  C   UNL     1       5.917   1.675   3.249  0.00  0.00    +0.000 A 
ATOM      4  C   UNL     1       6.637   2.224   4.369  0.00  0.00    +0.000 A 
ATOM      5  C   UNL     1       8.077   2.224   4.369  0.00  0.00    +0.000 A 
ATOM      6  C   UNL     1       6.637   0.029  -0.111  0.00  0.00    +0.000 A 
ENDROOT
BRANCH   1   8
ATOM      7  C   UNL     1       3.717   0.059  -0.049  0.00  0.00    +0.000 C 
ATOM      8  C   UNL     1       4.397   0.578   1.009  0.00  0.00    +0.000 C 
BRANCH   7  10
ATOM      9  N   UNL     1       0.936   0.059  -0.049  0.00  0.00    +0.000 NA
ATOM     10  C   UNL     1       2.197   0.059  -0.049  0.00  0.00    +0.000 C 
ENDBRANCH   7  10
BRANCH   7  11
ATOM     11  C   UNL     1       4.477  -0.520  -1.231  0.00  0.00    +0.000 C 
ATOM     12  N   UNL     1       5.107  -1.000  -2.211  0.00  0.00    +0.000 NA
ENDBRANCH   7  11
BRANCH   8  13
ATOM     13  C   UNL     1       3.637   1.157   2.191  0.00  0.00    +0.000 C 
ATOM     14  N   UNL     1       3.006   1.637   3.172  0.00  0.00    +0.000 NA
ENDBRANCH   8  13
ENDBRANCH   1   8
BRANCH   4  15
ATOM     15  N   UNL     1       5.902   2.784   5.513  0.00  0.00    +0.000 N 
ATOM     16  H   UNL     1       4.882   2.784   5.513  0.00  0.00    +0.000 HD
BRANCH  15  17
ATOM     17  C   UNL     1       6.637   3.344   6.656  0.00  0.00    +0.000 A 
ATOM     18  C   UNL     1       8.077   3.344   6.656  0.00  0.00    +0.000 A 
ATOM     19  C   UNL     1       8.797   2.795   5.536  0.00  0.00    +0.000 A 
ATOM     20  C   UNL     1      10.237   2.795   5.536  0.00  0.00    +0.000 A 
ATOM     21  C   UNL     1      10.958   2.247   4.416  0.00  0.00    +0.000 A 
ATOM     22  C   UNL     1       5.917   3.893   7.776  0.00  0.00    +0.000 A 
ENDBRANCH  15  17
ENDBRANCH   4  15
TORSDOF 6
