REMARK  Name = 
REMARK  7 active torsions:
REMARK  status: ('A' for Active; 'I' for Inactive)
REMARK    1  A    between atoms: C_1  and  C_2
REMARK    2  A    between atoms: C_4  and  C_5
REMARK    3  A    between atoms: C_7  and  N_8
REMARK    4  A    between atoms: N_11  and  C_12
REMARK    5  A    between atoms: C_15  and  O_16
REMARK    6  A    between atoms: O_16  and  C_17
REMARK    7  A    between atoms: C_17  and  C_18
REMARK                            x       y       z     vdW  Elec       q    Type
REMARK                         _______ _______ _______ _____ _____    ______ ____
ROOT
ATOM      1  N   UNL     1       3.499  -1.892   2.925  0.00  0.00    +0.000 NA
ATOM      2  C   UNL     1       4.256  -2.515   3.804  0.00  0.00    +0.000 C 
ATOM      3  N   UNL     1       4.611  -1.853   5.067  0.00  0.00    +0.000 N 
ATOM      4  N   UNL     1       4.746  -3.872   3.521  0.00  0.00    +0.000 N 
ATOM      5  H   UNL     1       5.197  -2.336   5.748  0.00  0.00    +0.000 HD
ATOM      6  H   UNL     1       4.271  -0.912   5.263  0.00  0.00    +0.000 HD
ATOM      7  H   UNL     1       5.332  -4.354   4.202  0.00  0.00    +0.000 HD
ENDROOT
BRANCH   1  14
ATOM      8  C   UNL     1       1.075   0.039   0.054  0.00  0.00    +0.000 C 
ATOM      9  C   UNL     1       0.568   1.442   0.345  0.00  0.00    +0.000 A 
ATOM     10  C   UNL     1       0.916   2.090   1.584  0.00  0.00    +0.000 A 
ATOM     11  C   UNL     1       1.744   1.409   2.545  0.00  0.00    +0.000 A 
ATOM     12  C   UNL     1       2.111   2.093   3.852  0.00  0.00    +0.000 C 
ATOM     13  N   UNL     1       2.208   0.123   2.278  0.00  0.00    +0.000 NA
ATOM     14  C   UNL     1       3.009  -0.536   3.208  0.00  0.00    +0.000 A 
ATOM     15  N   UNL     1      -0.232   2.101  -0.584  0.00  0.00    +0.000 NA
ENDBRANCH   1  14
BRANCH   4  16
ATOM     16  C   UNL     1       4.391  -4.533   2.257  0.00  0.00    +0.000 A 
ATOM     17  C   UNL     1       3.563  -3.852   1.296  0.00  0.00    +0.000 A 
ATOM     18  C   UNL     1       3.082  -2.523   1.572  0.00  0.00    +0.000 A 
ATOM     19  C   UNL     1       2.254  -1.841   0.611  0.00  0.00    +0.000 A 
ATOM     20  C   UNL     1       1.907  -2.489  -0.627  0.00  0.00    +0.000 A 
ATOM     21  C   UNL     1       4.871  -5.862   1.981  0.00  0.00    +0.000 A 
BRANCH  19  22
ATOM     22  O   UNL     1       1.781  -0.531   0.884  0.00  0.00    +0.000 OA
BRANCH  22  23
ATOM     23  C   UNL     1       2.124   0.108   2.105  0.00  0.00    +0.000 C 
BRANCH  23  24
ATOM     24  C   UNL     1       1.609  -0.718   3.271  0.00  0.00    +0.000 A 
ATOM     25  C   UNL     1       0.199  -0.981   3.401  0.00  0.00    +0.000 A 
ATOM     26  C   UNL     1      -0.723  -0.461   2.424  0.00  0.00    +0.000 A 
ATOM     27  C   UNL     1      -2.133  -0.724   2.553  0.00  0.00    +0.000 A 
ATOM     28  C   UNL     1      -3.055  -0.203   1.577  0.00  0.00    +0.000 A 
ATOM     29  C   UNL     1       2.531  -1.239   4.248  0.00  0.00    +0.000 A 
ENDBRANCH  23  24
ENDBRANCH  22  23
ENDBRANCH  19  22
ENDBRANCH   4  16
TORSDOF 5
