REMARK  Name = 
REMARK  8 active torsions:
REMARK  status: ('A' for Active; 'I' for Inactive)
REMARK    1  A    between atoms: C_1  and  O_2
REMARK    2  A    between atoms: O_2  and  C_3
REMARK    3  A    between atoms: C_8  and  C_9
REMARK    4  A    between atoms: C_12  and  C_13
REMARK    5  A    between atoms: N_15  and  C_16
REMARK    6  A    between atoms: C_16  and  C_17
REMARK    7  A    between atoms: C_17  and  C_18
REMARK    8  A    between atoms: C_19  and  C_20
REMARK                            x       y       z     vdW  Elec       q    Type
REMARK                         _______ _______ _______ _____ _____    ______ ____
ROOT
ATOM      1  C   UNL     1       4.635  -0.549   6.603  0.00  0.00    +0.000 C 
ATOM      2  O   UNL     1       5.366  -1.188   7.423  0.00  0.00    +0.000 OA
ATOM      3  N   UNL     1       4.145   0.794   6.948  0.00  0.00    +0.000 N 
ATOM      4  H   UNL     1       4.391   1.212   7.845  0.00  0.00    +0.000 HD
ENDROOT
BRANCH   1   8
ATOM      5  C   UNL     1       2.264  -0.313   2.141  0.00  0.00    +0.000 A 
ATOM      6  C   UNL     1       3.092  -1.038   3.070  0.00  0.00    +0.000 A 
ATOM      7  C   UNL     1       3.440  -0.447   4.337  0.00  0.00    +0.000 A 
ATOM      8  C   UNL     1       4.268  -1.172   5.266  0.00  0.00    +0.000 A 
ATOM      9  C   UNL     1       4.748  -2.487   4.929  0.00  0.00    +0.000 A 
ATOM     10  C   UNL     1       1.916  -0.904   0.875  0.00  0.00    +0.000 A 
BRANCH   5  16
ATOM     11  C   UNL     1       0.929   1.800   1.568  0.00  0.00    +0.000 A 
ATOM     12  C   UNL     1       0.449   3.115   1.906  0.00  0.00    +0.000 A 
ATOM     13  C   UNL     1      -0.379   3.840   0.976  0.00  0.00    +0.000 A 
ATOM     14  C   UNL     1      -0.859   5.155   1.314  0.00  0.00    +0.000 A 
ATOM     15  C   UNL     1      -1.687   5.880   0.385  0.00  0.00    +0.000 A 
ATOM     16  C   UNL     1       1.757   1.075   2.497  0.00  0.00    +0.000 A 
BRANCH  11  18
ATOM     17  C   UNL     1       1.059  -0.079  -0.013  0.00  0.00    +0.000 C 
ATOM     18  O   UNL     1       0.586   1.217   0.319  0.00  0.00    +0.000 OA
ENDBRANCH  11  18
ENDBRANCH   5  16
ENDBRANCH   1   8
BRANCH   3  19
ATOM     19  C   UNL     1       3.300   1.533   5.999  0.00  0.00    +0.000 C 
BRANCH  19  20
ATOM     20  C   UNL     1       1.957   1.835   6.645  0.00  0.00    +0.000 C 
BRANCH  20  21
ATOM     21  C   UNL     1       2.173   2.674   7.893  0.00  0.00    +0.000 A 
ATOM     22  C   UNL     1       2.973   2.163   8.976  0.00  0.00    +0.000 A 
ATOM     23  C   UNL     1       3.602   0.783   8.871  0.00  0.00    +0.000 C 
ATOM     24  N   UNL     1       3.170   2.933  10.120  0.00  0.00    +0.000 N 
ATOM     25  C   UNL     1       2.594   4.197  10.217  0.00  0.00    +0.000 A 
ATOM     26  C   UNL     1       1.793   4.708   9.134  0.00  0.00    +0.000 A 
ATOM     27  C   UNL     1       1.589   3.913   7.951  0.00  0.00    +0.000 A 
ATOM     28  C   UNL     1       0.789   4.424   6.869  0.00  0.00    +0.000 A 
ATOM     29  C   UNL     1       0.585   3.628   5.686  0.00  0.00    +0.000 A 
ATOM     30  C   UNL     1       2.798   4.993  11.400  0.00  0.00    +0.000 A 
ATOM     31  H   UNL     1       3.737   2.570  10.887  0.00  0.00    +0.000 HD
ENDBRANCH  20  21
ENDBRANCH  19  20
ENDBRANCH   3  19
TORSDOF 6
