REMARK  Name = 
REMARK  9 active torsions:
REMARK  status: ('A' for Active; 'I' for Inactive)
REMARK    1  A    between atoms: C_1  and  O_2
REMARK    2  A    between atoms: O_2  and  C_3
REMARK    3  A    between atoms: C_6  and  C_7
REMARK    4  A    between atoms: C_7  and  C_8
REMARK    5  A    between atoms: C_7  and  C_9
REMARK    6  A    between atoms: C_9  and  N_10
REMARK    7  A    between atoms: N_15  and  C_16
REMARK    8  A    between atoms: C_19  and  O_20
REMARK    9  A    between atoms: O_20  and  C_21
REMARK                            x       y       z     vdW  Elec       q    Type
REMARK                         _______ _______ _______ _____ _____    ______ ____
ROOT
ATOM      1  C   UNL     1       0.803   1.214  -2.154  0.00  0.00    +0.000 A 
ATOM      2  C   UNL     1       0.323   1.342  -3.506  0.00  0.00    +0.000 A 
ATOM      3  C   UNL     1      -0.505   0.311  -4.076  0.00  0.00    +0.000 A 
ATOM      4  C   UNL     1      -0.985   0.438  -5.428  0.00  0.00    +0.000 A 
ATOM      5  C   UNL     1      -0.637   1.597  -6.209  0.00  0.00    +0.000 A 
ATOM      6  C   UNL     1       1.631   2.245  -1.583  0.00  0.00    +0.000 A 
ENDROOT
BRANCH   1   8
ATOM      7  C   UNL     1       0.933  -0.055  -0.051  0.00  0.00    +0.000 C 
ATOM      8  O   UNL     1       0.460   0.071  -1.384  0.00  0.00    +0.000 OA
ENDBRANCH   1   8
BRANCH   4   9
ATOM      9  C   UNL     1      -1.859  -0.650  -6.030  0.00  0.00    +0.000 C 
ATOM     10  C   UNL     1      -3.201  -0.059  -6.429  0.00  0.00    +0.000 C 
BRANCH   9  11
ATOM     11  C   UNL     1      -1.175  -1.227  -7.259  0.00  0.00    +0.000 C 
BRANCH  11  12
ATOM     12  N   UNL     1       0.124  -1.799  -6.874  0.00  0.00    +0.000 N 
ATOM     13  C   UNL     1       1.098  -0.988  -6.296  0.00  0.00    +0.000 A 
ATOM     14  C   UNL     1       0.833   0.411  -6.076  0.00  0.00    +0.000 A 
ATOM     15  N   UNL     1       1.807   1.222  -5.499  0.00  0.00    +0.000 NA
ATOM     16  C   UNL     1       0.380  -3.151  -7.086  0.00  0.00    +0.000 A 
ATOM     17  N   UNL     1      -0.648  -4.007  -7.696  0.00  0.00    +0.000 N 
ATOM     18  H   UNL     1      -0.460  -4.997  -7.851  0.00  0.00    +0.000 HD
BRANCH  17  19
ATOM     19  C   UNL     1      -1.946  -3.436  -8.081  0.00  0.00    +0.000 C 
ATOM     20  N   UNL     1      -3.060  -2.945  -8.412  0.00  0.00    +0.000 NA
ENDBRANCH  17  19
ENDBRANCH  11  12
ENDBRANCH   9  11
ENDBRANCH   4   9
BRANCH   6  21
ATOM     21  O   UNL     1       2.104   2.119  -0.251  0.00  0.00    +0.000 OA
BRANCH  21  22
ATOM     22  C   UNL     1       2.921   3.136   0.312  0.00  0.00    +0.000 C 
ATOM     23  C   UNL     1       2.161   4.452   0.315  0.00  0.00    +0.000 C 
ATOM     24  C   UNL     1       0.894   4.304   1.142  0.00  0.00    +0.000 C 
ATOM     25  O   UNL     1       1.237   3.952   2.474  0.00  0.00    +0.000 OA
ATOM     26  C   UNL     1       4.188   3.284  -0.515  0.00  0.00    +0.000 C 
ENDBRANCH  21  22
ENDBRANCH   6  21
TORSDOF 7
