REMARK  Name = 
REMARK  8 active torsions:
REMARK  status: ('A' for Active; 'I' for Inactive)
REMARK    1  A    between atoms: C_1  and  O_2
REMARK    2  A    between atoms: O_2  and  C_3
REMARK    3  A    between atoms: C_7  and  N_8
REMARK    4  A    between atoms: C_12  and  C_13
REMARK    5  A    between atoms: N_15  and  C_16
REMARK    6  A    between atoms: C_16  and  C_17
REMARK    7  A    between atoms: C_17  and  C_18
REMARK    8  A    between atoms: C_19  and  C_20
REMARK                            x       y       z     vdW  Elec       q    Type
REMARK                         _______ _______ _______ _____ _____    ______ ____
ROOT
ATOM      1  C   UNL     1      -0.244  -1.897   1.277  0.00  0.00    +0.000 C 
ATOM      2  O   UNL     1      -0.551  -2.466   2.371  0.00  0.00    +0.000 OA
ATOM      3  N   UNL     1       0.601  -0.694   1.285  0.00  0.00    +0.000 N 
ATOM      4  H   UNL     1       0.941  -0.316   2.169  0.00  0.00    +0.000 HD
ENDROOT
BRANCH   1   9
ATOM      5  N   UNL     1      -2.158  -4.019  -3.770  0.00  0.00    +0.000 N 
ATOM      6  C   UNL     1      -1.668  -3.473  -2.496  0.00  0.00    +0.000 A 
ATOM      7  N   UNL     1      -0.867  -2.334  -2.488  0.00  0.00    +0.000 NA
ATOM      8  C   UNL     1      -0.403  -1.817  -1.281  0.00  0.00    +0.000 A 
ATOM      9  C   UNL     1      -0.751  -2.461  -0.041  0.00  0.00    +0.000 A 
ATOM     10  C   UNL     1      -1.579  -3.639  -0.049  0.00  0.00    +0.000 A 
ATOM     11  N   UNL     1      -2.005  -4.096  -1.296  0.00  0.00    +0.000 NA
ATOM     12  H   UNL     1      -2.745  -4.853  -3.776  0.00  0.00    +0.000 HD
BRANCH   5  17
ATOM     13  C   UNL     1       0.813   0.064  -2.523  0.00  0.00    +0.000 A 
ATOM     14  C   UNL     1       0.333  -0.470  -3.772  0.00  0.00    +0.000 A 
ATOM     15  C   UNL     1      -0.495  -1.648  -3.780  0.00  0.00    +0.000 A 
ATOM     16  C   UNL     1      -0.975  -2.183  -5.028  0.00  0.00    +0.000 A 
ATOM     17  C   UNL     1      -1.803  -3.361  -5.036  0.00  0.00    +0.000 A 
ATOM     18  N   UNL     1       1.614   1.204  -2.515  0.00  0.00    +0.000 NA
BRANCH  13  20
ATOM     19  C   UNL     1       0.943  -0.044  -0.070  0.00  0.00    +0.000 C 
ATOM     20  O   UNL     1       0.470  -0.571  -1.300  0.00  0.00    +0.000 OA
ENDBRANCH  13  20
ENDBRANCH   5  17
ENDBRANCH   1   9
BRANCH   3  21
ATOM     21  C   UNL     1       0.956  -0.037   0.019  0.00  0.00    +0.000 C 
BRANCH  21  22
ATOM     22  C   UNL     1       0.441   1.393   0.029  0.00  0.00    +0.000 C 
BRANCH  22  23
ATOM     23  C   UNL     1       1.070   2.150   1.187  0.00  0.00    +0.000 A 
ATOM     24  C   UNL     1       0.866   1.698   2.539  0.00  0.00    +0.000 A 
ATOM     25  C   UNL     1       0.021   0.463   2.808  0.00  0.00    +0.000 C 
ATOM     26  N   UNL     1       1.442   2.392   3.600  0.00  0.00    +0.000 N 
ATOM     27  C   UNL     1       2.216   3.523   3.354  0.00  0.00    +0.000 A 
ATOM     28  C   UNL     1       2.420   3.976   2.002  0.00  0.00    +0.000 A 
ATOM     29  C   UNL     1       1.824   3.258   0.905  0.00  0.00    +0.000 A 
ATOM     30  C   UNL     1       2.028   3.711  -0.447  0.00  0.00    +0.000 A 
ATOM     31  C   UNL     1       1.432   2.993  -1.544  0.00  0.00    +0.000 A 
ATOM     32  C   UNL     1       2.812   4.241   4.451  0.00  0.00    +0.000 A 
ATOM     33  H   UNL     1       1.298   2.071   4.558  0.00  0.00    +0.000 HD
ENDBRANCH  22  23
ENDBRANCH  21  22
ENDBRANCH   3  21
TORSDOF 6
