REMARK  Name = 
REMARK  11 active torsions:
REMARK  status: ('A' for Active; 'I' for Inactive)
REMARK    1  A    between atoms: C_1  and  C_2
REMARK    2  A    between atoms: C_2  and  C_3
REMARK    3  A    between atoms: C_3  and  C_4
REMARK    4  A    between atoms: C_4  and  C_6
REMARK    5  A    between atoms: C_7  and  O_8
REMARK    6  A    between atoms: C_12  and  O_13
REMARK    7  A    between atoms: C_14  and  C_15
REMARK    8  A    between atoms: C_24  and  C_25
REMARK    9  A    between atoms: C_24  and  C_26
REMARK   10  A    between atoms: C_29  and  C_30
REMARK   11  A    between atoms: C_29  and  C_31
REMARK                            x       y       z     vdW  Elec       q    Type
REMARK                         _______ _______ _______ _____ _____    ______ ____
ROOT
ATOM      1  C   UNL     1       0.927   1.611  -2.285  0.00  0.00    +0.000 A 
ATOM      2  C   UNL     1       0.447   1.751  -3.636  0.00  0.00    +0.000 A 
ATOM      3  C   UNL     1       0.795   0.769  -4.629  0.00  0.00    +0.000 A 
ATOM      4  C   UNL     1       1.623  -0.354  -4.272  0.00  0.00    +0.000 A 
ATOM      5  C   UNL     1       2.103  -0.495  -2.922  0.00  0.00    +0.000 A 
ATOM      6  C   UNL     1       1.755   0.488  -1.928  0.00  0.00    +0.000 A 
ATOM      7  C   UNL     1       2.977  -1.680  -2.545  0.00  0.00    +0.000 C 
ATOM      8  C   UNL     1       4.244  -1.663  -3.385  0.00  0.00    +0.000 C 
ATOM      9  C   UNL     1       4.162  -1.733  -4.741  0.00  0.00    +0.000 C 
ATOM     10  O   UNL     1       1.966  -1.323  -5.252  0.00  0.00    +0.000 OA
ATOM     11  C   UNL     1       5.428  -1.716  -5.581  0.00  0.00    +0.000 C 
ATOM     12  C   UNL     1       6.188  -0.425  -5.326  0.00  0.00    +0.000 C 
ATOM     13  C   UNL     1       6.302  -2.901  -5.204  0.00  0.00    +0.000 C 
ATOM     14  C   UNL     1       5.061  -1.805  -7.053  0.00  0.00    +0.000 C 
ATOM     15  O   UNL     1       3.841  -1.878  -7.401  0.00  0.00    +0.000 OA
ATOM     16  C   UNL     1       6.153  -1.807  -8.110  0.00  0.00    +0.000 C 
ATOM     17  C   UNL     1       7.072  -2.997  -7.888  0.00  0.00    +0.000 C 
ATOM     18  C   UNL     1       5.523  -1.903  -9.490  0.00  0.00    +0.000 C 
ATOM     19  C   UNL     1       5.602  -1.567  -2.710  0.00  0.00    +0.000 C 
ATOM     20  O   UNL     1       5.679  -1.502  -1.443  0.00  0.00    +0.000 OA
ENDROOT
BRANCH   7  21
ATOM     21  C   UNL     1       2.217  -2.971  -2.800  0.00  0.00    +0.000 A 
ATOM     22  C   UNL     1       0.975  -3.223  -2.116  0.00  0.00    +0.000 A 
ATOM     23  C   UNL     1       0.453  -2.252  -1.190  0.00  0.00    +0.000 A 
ATOM     24  C   UNL     1      -0.789  -2.504  -0.506  0.00  0.00    +0.000 A 
ATOM     25  C   UNL     1      -1.311  -1.532   0.420  0.00  0.00    +0.000 A 
ATOM     26  C   UNL     1       2.739  -3.943  -3.727  0.00  0.00    +0.000 A 
ENDBRANCH   7  21
BRANCH   1  27
ATOM     27  C   UNL     1       0.560   2.649  -1.237  0.00  0.00    +0.000 C 
ATOM     28  O   UNL     1      -0.171   3.640  -1.552  0.00  0.00    +0.000 OA
BRANCH  27  29
ATOM     29  C   UNL     1       1.067   2.501   0.189  0.00  0.00    +0.000 C 
BRANCH  29  31
ATOM     30  C   UNL     1       1.067   0.032  -0.067  0.00  0.00    +0.000 C 
ATOM     31  C   UNL     1       0.560   1.192   0.773  0.00  0.00    +0.000 C 
ENDBRANCH  29  31
ENDBRANCH  27  29
ENDBRANCH   1  27
BRANCH   2  32
ATOM     32  O   UNL     1      -0.369   2.859  -3.988  0.00  0.00    +0.000 OA
ATOM     33  H   UNL     1      -0.611   3.541  -3.298  0.00  0.00    +0.000 HD
ENDBRANCH   2  32
BRANCH   6  34
ATOM     34  O   UNL     1       2.229   0.350  -0.597  0.00  0.00    +0.000 OA
ATOM     35  H   UNL     1       2.803  -0.430  -0.349  0.00  0.00    +0.000 HD
ENDBRANCH   6  34
TORSDOF 6
