REMARK  Name = 
REMARK  11 active torsions:
REMARK  status: ('A' for Active; 'I' for Inactive)
REMARK    1  A    between atoms: C_1  and  O_2
REMARK    2  A    between atoms: O_2  and  C_3
REMARK    3  A    between atoms: C_5  and  C_6
REMARK    4  A    between atoms: C_11  and  C_13
REMARK    5  A    between atoms: C_13  and  C_14
REMARK    6  A    between atoms: C_14  and  S_15
REMARK    7  A    between atoms: S_15  and  C_18
REMARK    8  A    between atoms: C_27  and  O_28
REMARK    9  A    between atoms: O_28  and  C_29
REMARK   10  A    between atoms: C_30  and  O_31
REMARK   11  A    between atoms: O_31  and  C_32
REMARK                            x       y       z     vdW  Elec       q    Type
REMARK                         _______ _______ _______ _____ _____    ______ ____
ROOT
ATOM      1  C   UNL     1      -0.922   0.686   5.361  0.00  0.00    +0.000 A 
ATOM      2  N   UNL     1      -0.585  -0.257   6.330  0.00  0.00    +0.000 NA
ATOM      3  N   UNL     1      -1.034  -0.115   7.591  0.00  0.00    +0.000 NA
ATOM      4  C   UNL     1      -0.697  -1.057   8.560  0.00  0.00    +0.000 A 
ATOM      5  N   UNL     1      -1.187  -0.902   9.937  0.00  0.00    +0.000 N 
ATOM      6  C   UNL     1      -2.032   0.247  10.291  0.00  0.00    +0.000 C 
ATOM      7  O   UNL     1      -2.456   0.381  11.482  0.00  0.00    +0.000 OA
ATOM      8  O   UNL     1      -1.695   1.737   5.685  0.00  0.00    +0.000 OA
ATOM      9  H   UNL     1      -0.941  -1.592  10.647  0.00  0.00    +0.000 HD
ENDROOT
BRANCH   1  12
ATOM     10  C   UNL     1       0.893  -0.753   2.240  0.00  0.00    +0.000 A 
ATOM     11  C   UNL     1       0.413  -0.601   3.590  0.00  0.00    +0.000 A 
ATOM     12  C   UNL     1      -0.415   0.525   3.937  0.00  0.00    +0.000 A 
ATOM     13  C   UNL     1      -0.763   1.499   2.935  0.00  0.00    +0.000 A 
ATOM     14  C   UNL     1      -0.283   1.348   1.586  0.00  0.00    +0.000 A 
ATOM     15  C   UNL     1       1.721  -1.879   1.893  0.00  0.00    +0.000 A 
BRANCH  10  17
ATOM     16  C   UNL     1       1.023   0.058  -0.078  0.00  0.00    +0.000 C 
ATOM     17  O   UNL     1       0.550   0.208   1.252  0.00  0.00    +0.000 OA
ENDBRANCH  10  17
BRANCH  14  18
ATOM     18  O   UNL     1       0.533   0.237   1.243  0.00  0.00    +0.000 OA
ATOM     19  C   UNL     1       1.007   0.088  -0.087  0.00  0.00    +0.000 C 
ENDBRANCH  14  18
BRANCH  15  20
ATOM     20  O   UNL     1       2.194  -2.028   0.563  0.00  0.00    +0.000 OA
ATOM     21  C   UNL     1       3.011  -3.139   0.220  0.00  0.00    +0.000 C 
ENDBRANCH  15  20
ENDBRANCH   1  12
BRANCH   6  22
ATOM     22  C   UNL     1      -2.400   1.276   9.234  0.00  0.00    +0.000 C 
BRANCH  22  23
ATOM     23  C   UNL     1      -1.133   1.908   8.681  0.00  0.00    +0.000 C 
BRANCH  23  24
ATOM     24  S   UNL     1      -0.092   0.626   7.940  0.00  0.00    +0.000 S 
ATOM     25  O   UNL     1      -0.858  -0.060   6.806  0.00  0.00    +0.000 OA
ATOM     26  O   UNL     1       1.183   1.262   7.383  0.00  0.00    +0.000 OA
BRANCH  24  27
ATOM     27  C   UNL     1       0.345  -0.599   9.199  0.00  0.00    +0.000 A 
ATOM     28  C   UNL     1       1.173  -1.725   8.852  0.00  0.00    +0.000 A 
ATOM     29  C   UNL     1       1.653  -1.877   7.502  0.00  0.00    +0.000 A 
ATOM     30  C   UNL     1       2.481  -3.003   7.155  0.00  0.00    +0.000 A 
ATOM     31  F   UNL     1       2.924  -3.143   5.909  0.00  0.00    +0.000 F 
ATOM     32  C   UNL     1       2.829  -3.977   8.157  0.00  0.00    +0.000 A 
ATOM     33  C   UNL     1      -0.135  -0.447  10.548  0.00  0.00    +0.000 A 
ENDBRANCH  24  27
ENDBRANCH  23  24
ENDBRANCH  22  23
ENDBRANCH   6  22
TORSDOF 8
