REMARK  Name = 
REMARK  5 active torsions:
REMARK  status: ('A' for Active; 'I' for Inactive)
REMARK    1  A    between atoms: C_1  and  C_2
REMARK    2  A    between atoms: C_5  and  S_6
REMARK    3  A    between atoms: S_6  and  C_9
REMARK    4  A    between atoms: C_10  and  C_11
REMARK    5  A    between atoms: C_11  and  C_13
REMARK                            x       y       z     vdW  Elec       q    Type
REMARK                         _______ _______ _______ _____ _____    ______ ____
ROOT
ATOM      1  C   UNL     1       3.455   4.307   0.349  0.00  0.00    +0.000 A 
ATOM      2  C   UNL     1       4.283   5.135   1.187  0.00  0.00    +0.000 A 
ATOM      3  C   UNL     1       4.631   4.697   2.514  0.00  0.00    +0.000 A 
ATOM      4  N   UNL     1       4.166   3.472   2.988  0.00  0.00    +0.000 NA
ATOM      5  C   UNL     1       3.365   2.671   2.177  0.00  0.00    +0.000 A 
ATOM      6  C   UNL     1       2.885   1.404   2.667  0.00  0.00    +0.000 A 
ATOM      7  C   UNL     1       3.233   0.966   3.994  0.00  0.00    +0.000 A 
ATOM      8  C   UNL     1       4.061   1.795   4.832  0.00  0.00    +0.000 A 
ATOM      9  C   UNL     1       4.541   3.062   4.342  0.00  0.00    +0.000 A 
ATOM     10  C   UNL     1       3.018   3.109   0.850  0.00  0.00    +0.000 A 
ATOM     11  O   UNL     1       4.404   1.363   6.140  0.00  0.00    +0.000 OA
ATOM     12  C   UNL     1       5.221   2.180   6.966  0.00  0.00    +0.000 C 
ATOM     13  C   UNL     1       6.563   2.404   6.289  0.00  0.00    +0.000 C 
ATOM     14  O   UNL     1       2.760  -0.282   4.476  0.00  0.00    +0.000 OA
ENDROOT
BRANCH   1  15
ATOM     15  S   UNL     1       3.017   4.857  -1.319  0.00  0.00    +0.000 S 
ATOM     16  O   UNL     1       4.293   5.056  -2.141  0.00  0.00    +0.000 OA
ATOM     17  O   UNL     1       2.252   6.180  -1.235  0.00  0.00    +0.000 OA
BRANCH  15  22
ATOM     18  C   UNL     1       0.960  -0.017   0.090  0.00  0.00    +0.000 C 
ATOM     19  C   UNL     1       0.453   0.204  -1.326  0.00  0.00    +0.000 A 
ATOM     20  C   UNL     1       0.801   1.408  -2.035  0.00  0.00    +0.000 A 
ATOM     21  C   UNL     1       1.629   2.403  -1.403  0.00  0.00    +0.000 A 
ATOM     22  C   UNL     1       1.977   3.607  -2.113  0.00  0.00    +0.000 A 
ATOM     23  C   UNL     1       1.497   3.817  -3.455  0.00  0.00    +0.000 A 
ATOM     24  C   UNL     1      -0.375  -0.790  -1.958  0.00  0.00    +0.000 A 
ENDBRANCH  15  22
ENDBRANCH   1  15
BRANCH   2  25
ATOM     25  C   UNL     1       4.789   6.472   0.671  0.00  0.00    +0.000 C 
ATOM     26  O   UNL     1       5.520   7.203   1.410  0.00  0.00    +0.000 OA
BRANCH  25  27
ATOM     27  C   UNL     1       4.422   6.934  -0.730  0.00  0.00    +0.000 A 
ATOM     28  C   UNL     1       4.902   8.201  -1.219  0.00  0.00    +0.000 A 
ATOM     29  C   UNL     1       5.730   9.029  -0.381  0.00  0.00    +0.000 A 
ATOM     30  C   UNL     1       6.210  10.296  -0.871  0.00  0.00    +0.000 A 
ATOM     31  C   UNL     1       7.038  11.125  -0.033  0.00  0.00    +0.000 A 
ATOM     32  C   UNL     1       3.594   6.105  -1.568  0.00  0.00    +0.000 A 
ENDBRANCH  25  27
ENDBRANCH   2  25
TORSDOF 4
