REMARK  Name = 
REMARK  8 active torsions:
REMARK  status: ('A' for Active; 'I' for Inactive)
REMARK    1  A    between atoms: C_2  and  C_3
REMARK    2  A    between atoms: C_3  and  C_22
REMARK    3  A    between atoms: C_4  and  C_5
REMARK    4  A    between atoms: C_8  and  C_9
REMARK    5  A    between atoms: C_11  and  C_12
REMARK    6  A    between atoms: C_12  and  O_14
REMARK    7  A    between atoms: C_16  and  C_17
REMARK    8  A    between atoms: C_17  and  O_19
REMARK                            x       y       z     vdW  Elec       q    Type
REMARK                         _______ _______ _______ _____ _____    ______ ____
ROOT
ATOM      1  C   UNL     1       5.935  -1.261   0.103  0.00  0.00    +0.000 A 
ATOM      2  C   UNL     1       6.655  -0.016   0.020  0.00  0.00    +0.000 A 
ATOM      3  C   UNL     1       5.935   1.228  -0.063  0.00  0.00    +0.000 A 
ATOM      4  C   UNL     1       6.655   2.473  -0.146  0.00  0.00    +0.000 A 
ATOM      5  O   UNL     1       6.608  -2.423   0.181  0.00  0.00    +0.000 OA
ENDROOT
BRANCH   4   6
ATOM      6  C   UNL     1       8.175   2.473  -0.146  0.00  0.00    +0.000 A 
ATOM      7  C   UNL     1       8.895   3.717  -0.229  0.00  0.00    +0.000 A 
ATOM      8  C   UNL     1       8.175   4.962  -0.312  0.00  0.00    +0.000 A 
ATOM      9  C   UNL     1       6.735   4.962  -0.312  0.00  0.00    +0.000 A 
ATOM     10  C   UNL     1       6.015   3.717  -0.229  0.00  0.00    +0.000 A 
ATOM     11  C   UNL     1       8.895   1.228  -0.063  0.00  0.00    +0.000 A 
BRANCH   8  12
ATOM     12  C   UNL     1       8.935   6.275  -0.399  0.00  0.00    +0.000 C 
ATOM     13  O   UNL     1       8.300   7.374  -0.472  0.00  0.00    +0.000 OA
BRANCH  12  14
ATOM     14  O   UNL     1      10.355   6.275  -0.399  0.00  0.00    +0.000 OA
ATOM     15  H   UNL     1      10.855   7.139  -0.457  0.00  0.00    +0.000 HD
ENDBRANCH  12  14
ENDBRANCH   8  12
BRANCH  10  16
ATOM     16  C   UNL     1       6.775   2.404  -0.141  0.00  0.00    +0.000 C 
ATOM     17  O   UNL     1       8.046   2.404  -0.141  0.00  0.00    +0.000 OA
BRANCH  16  18
ATOM     18  O   UNL     1       6.065   1.177  -0.059  0.00  0.00    +0.000 OA
ATOM     19  H   UNL     1       6.565   0.313  -0.001  0.00  0.00    +0.000 HD
ENDBRANCH  16  18
ENDBRANCH  10  16
ENDBRANCH   4   6
BRANCH   1  21
ATOM     20  C   UNL     1       3.735  -0.085   0.025  0.00  0.00    +0.000 C 
ATOM     21  C   UNL     1       4.415  -1.261   0.103  0.00  0.00    +0.000 C 
BRANCH  20  22
ATOM     22  C   UNL     1       4.495   1.228  -0.063  0.00  0.00    +0.000 A 
ATOM     23  N   UNL     1       5.887   1.228  -0.063  0.00  0.00    +0.000 NA
ATOM     24  C   UNL     1       6.584   2.432  -0.143  0.00  0.00    +0.000 A 
ATOM     25  C   UNL     1       8.024   2.432  -0.143  0.00  0.00    +0.000 A 
ATOM     26  C   UNL     1       8.744   1.187  -0.060  0.00  0.00    +0.000 A 
ATOM     27  C   UNL     1      10.184   1.187  -0.060  0.00  0.00    +0.000 A 
ATOM     28  C   UNL     1      10.905  -0.057   0.023  0.00  0.00    +0.000 A 
ATOM     29  C   UNL     1       5.864   3.676  -0.226  0.00  0.00    +0.000 A 
ATOM     30  S   UNL     1       3.637   2.710  -0.161  0.00  0.00    +0.000 S 
ENDBRANCH  20  22
BRANCH  20  32
ATOM     31  N   UNL     1       0.954  -0.085   0.025  0.00  0.00    +0.000 NA
ATOM     32  C   UNL     1       2.215  -0.085   0.025  0.00  0.00    +0.000 C 
ENDBRANCH  20  32
ENDBRANCH   1  21
TORSDOF 8
