REMARK  Name = 
REMARK  9 active torsions:
REMARK  status: ('A' for Active; 'I' for Inactive)
REMARK    1  A    between atoms: C_1  and  O_2
REMARK    2  A    between atoms: O_2  and  C_3
REMARK    3  A    between atoms: C_7  and  O_8
REMARK    4  A    between atoms: O_8  and  C_9
REMARK    5  A    between atoms: C_10  and  C_11
REMARK    6  A    between atoms: C_14  and  C_15
REMARK    7  A    between atoms: C_15  and  O_16
REMARK    8  A    between atoms: O_16  and  C_17
REMARK    9  A    between atoms: N_19  and  C_20
REMARK                            x       y       z     vdW  Elec       q    Type
REMARK                         _______ _______ _______ _____ _____    ______ ____
ROOT
ATOM      1  C   UNL     1       2.178  -0.782   2.108  0.00  0.00    +0.000 A 
ATOM      2  C   UNL     1       3.006  -1.694   2.854  0.00  0.00    +0.000 A 
ATOM      3  C   UNL     1       3.354  -1.399   4.220  0.00  0.00    +0.000 A 
ATOM      4  C   UNL     1       4.182  -2.311   4.965  0.00  0.00    +0.000 A 
ATOM      5  C   UNL     1       4.662  -3.519   4.345  0.00  0.00    +0.000 A 
ATOM      6  C   UNL     1       1.830  -1.077   0.742  0.00  0.00    +0.000 A 
ENDROOT
BRANCH   1  12
ATOM      7  C   UNL     1       0.843   1.406   2.017  0.00  0.00    +0.000 A 
ATOM      8  C   UNL     1       0.363   2.613   2.637  0.00  0.00    +0.000 A 
ATOM      9  C   UNL     1      -0.465   3.526   1.892  0.00  0.00    +0.000 A 
ATOM     10  C   UNL     1      -0.945   4.734   2.512  0.00  0.00    +0.000 A 
ATOM     11  C   UNL     1      -1.773   5.646   1.767  0.00  0.00    +0.000 A 
ATOM     12  C   UNL     1       1.671   0.493   2.763  0.00  0.00    +0.000 A 
BRANCH   7  14
ATOM     13  C   UNL     1       0.973  -0.077   0.059  0.00  0.00    +0.000 C 
ATOM     14  O   UNL     1       0.500   1.114   0.670  0.00  0.00    +0.000 OA
ENDBRANCH   7  14
BRANCH  11  15
ATOM     15  O   UNL     1      -2.116   5.355   0.420  0.00  0.00    +0.000 OA
ATOM     16  C   UNL     1      -2.932   6.255  -0.315  0.00  0.00    +0.000 C 
ENDBRANCH  11  15
ENDBRANCH   1  12
BRANCH   4  17
ATOM     17  C   UNL     1       4.549  -2.000   6.407  0.00  0.00    +0.000 C 
BRANCH  17  18
ATOM     18  O   UNL     1       4.068  -3.034   7.252  0.00  0.00    +0.000 OA
BRANCH  18  19
ATOM     19  C   UNL     1       2.656  -3.125   7.132  0.00  0.00    +0.000 C 
ATOM     20  C   UNL     1       2.288  -3.436   5.691  0.00  0.00    +0.000 C 
ATOM     21  N   UNL     1       2.897  -4.715   5.296  0.00  0.00    +0.000 N 
ATOM     22  C   UNL     1       2.027  -1.803   7.541  0.00  0.00    +0.000 C 
BRANCH  21  23
ATOM     23  C   UNL     1       4.357  -4.877   5.333  0.00  0.00    +0.000 C 
ATOM     24  N   UNL     1       5.610  -5.015   5.365  0.00  0.00    +0.000 NA
ENDBRANCH  21  23
ENDBRANCH  18  19
ENDBRANCH  17  18
ENDBRANCH   4  17
TORSDOF 7
