REMARK  Name = 
REMARK  7 active torsions:
REMARK  status: ('A' for Active; 'I' for Inactive)
REMARK    1  A    between atoms: C_1  and  O_2
REMARK    2  A    between atoms: O_2  and  C_3
REMARK    3  A    between atoms: C_15  and  C_16
REMARK    4  A    between atoms: C_19  and  O_20
REMARK    5  A    between atoms: C_21  and  O_22
REMARK    6  A    between atoms: C_24  and  C_25
REMARK    7  A    between atoms: C_25  and  O_26
REMARK                            x       y       z     vdW  Elec       q    Type
REMARK                         _______ _______ _______ _____ _____    ______ ____
ROOT
ATOM      1  C   UNL     1       0.933   2.334  -0.563  0.00  0.00    +0.000 A 
ATOM      2  C   UNL     1       0.453   3.404  -1.398  0.00  0.00    +0.000 A 
ATOM      3  C   UNL     1       0.801   4.768  -1.093  0.00  0.00    +0.000 A 
ATOM      4  C   UNL     1       1.629   5.061   0.049  0.00  0.00    +0.000 A 
ATOM      5  C   UNL     1       1.977   6.425   0.354  0.00  0.00    +0.000 A 
ATOM      6  C   UNL     1       1.497   7.495  -0.481  0.00  0.00    +0.000 A 
ATOM      7  C   UNL     1       0.669   7.202  -1.623  0.00  0.00    +0.000 A 
ATOM      8  C   UNL     1       0.189   8.272  -2.458  0.00  0.00    +0.000 A 
ATOM      9  O   UNL     1      -0.542   8.013  -3.465  0.00  0.00    +0.000 OA
ATOM     10  O   UNL     1       0.514   9.546  -2.173  0.00  0.00    +0.000 OA
ATOM     11  C   UNL     1       2.805   6.719   1.495  0.00  0.00    +0.000 A 
ATOM     12  O   UNL     1       0.328   5.823  -1.917  0.00  0.00    +0.000 OA
ATOM     13  C   UNL     1       0.671   7.168  -1.615  0.00  0.00    +0.000 C 
ATOM     14  C   UNL     1       2.182   7.325  -1.650  0.00  0.00    +0.000 C 
ATOM     15  O   UNL     1      -0.363   3.115  -2.524  0.00  0.00    +0.000 OA
ENDROOT
BRANCH  13  16
ATOM     16  C   UNL     1       0.156   7.524  -0.230  0.00  0.00    +0.000 A 
ATOM     17  C   UNL     1      -1.254   7.453   0.054  0.00  0.00    +0.000 A 
ATOM     18  C   UNL     1      -2.176   7.044  -0.974  0.00  0.00    +0.000 A 
ATOM     19  C   UNL     1      -3.586   6.972  -0.690  0.00  0.00    +0.000 A 
ATOM     20  C   UNL     1      -4.074   7.310   0.622  0.00  0.00    +0.000 A 
ATOM     21  C   UNL     1       1.078   7.933   0.798  0.00  0.00    +0.000 A 
BRANCH  19  22
ATOM     22  O   UNL     1      -4.495   6.569  -1.704  0.00  0.00    +0.000 OA
ATOM     23  H   UNL     1      -4.156   6.335  -2.615  0.00  0.00    +0.000 HD
ENDBRANCH  19  22
BRANCH  20  24
ATOM     24  O   UNL     1      -5.465   7.240   0.902  0.00  0.00    +0.000 OA
ATOM     25  H   UNL     1      -5.804   7.474   1.813  0.00  0.00    +0.000 HD
ENDBRANCH  20  24
ENDBRANCH  13  16
BRANCH   1  27
ATOM     26  C   UNL     1       1.064  -0.066  -0.040  0.00  0.00    +0.000 C 
ATOM     27  O   UNL     1       0.590   0.989  -0.864  0.00  0.00    +0.000 OA
ENDBRANCH   1  27
BRANCH  14  28
ATOM     28  C   UNL     1       2.550   8.764  -1.327  0.00  0.00    +0.000 C 
BRANCH  28  29
ATOM     29  O   UNL     1       2.068   9.097  -0.033  0.00  0.00    +0.000 OA
ATOM     30  H   UNL     1       1.074   8.994  -0.011  0.00  0.00    +0.000 HD
ENDBRANCH  28  29
ENDBRANCH  14  28
TORSDOF 6
