REMARK  Name = 
REMARK  9 active torsions:
REMARK  status: ('A' for Active; 'I' for Inactive)
REMARK    1  A    between atoms: C_1  and  C_2
REMARK    2  A    between atoms: C_2  and  O_3
REMARK    3  A    between atoms: O_3  and  C_4
REMARK    4  A    between atoms: C_6  and  C_7
REMARK    5  A    between atoms: C_13  and  C_14
REMARK    6  A    between atoms: C_14  and  C_15
REMARK    7  A    between atoms: C_23  and  O_24
REMARK    8  A    between atoms: O_24  and  C_25
REMARK    9  A    between atoms: C_25  and  C_27
REMARK                            x       y       z     vdW  Elec       q    Type
REMARK                         _______ _______ _______ _____ _____    ______ ____
ROOT
ATOM      1  C   UNL     1       2.297   1.846   1.762  0.00  0.00    +0.000 A 
ATOM      2  C   UNL     1       2.777   3.157   2.117  0.00  0.00    +0.000 A 
ATOM      3  C   UNL     1       1.842   4.213   2.404  0.00  0.00    +0.000 A 
ATOM      4  C   UNL     1       0.426   3.959   2.335  0.00  0.00    +0.000 A 
ATOM      5  C   UNL     1      -0.054   2.649   1.980  0.00  0.00    +0.000 A 
ATOM      6  C   UNL     1       3.233   0.790   1.475  0.00  0.00    +0.000 A 
ENDROOT
BRANCH   3   7
ATOM      7  C   UNL     1       2.348   5.596   2.779  0.00  0.00    +0.000 C 
ATOM      8  C   UNL     1       1.464   6.594   3.050  0.00  0.00    +0.000 C 
ATOM      9  C   UNL     1       1.971   7.977   3.425  0.00  0.00    +0.000 C 
ATOM     10  N   UNL     1       3.264   8.209   3.488  0.00  0.00    +0.000 NA
ATOM     11  N   UNL     1       1.016   9.056   3.718  0.00  0.00    +0.000 N 
ATOM     12  N   UNL     1       1.489  10.348   4.068  0.00  0.00    +0.000 NA
ATOM     13  C   UNL     1       0.634  11.313   4.330  0.00  0.00    +0.000 C 
ATOM     14  S   UNL     1       1.237  12.960   4.777  0.00  0.00    +0.000 S 
ATOM     15  C   UNL     1      -0.430   8.796   3.647  0.00  0.00    +0.000 C 
ATOM     16  N   UNL     1      -0.868   7.599   3.322  0.00  0.00    +0.000 NA
ATOM     17  C   UNL     1      -0.030   6.326   2.977  0.00  0.00    +0.000 C 
ATOM     18  O   UNL     1      -0.454   5.170   2.663  0.00  0.00    +0.000 OA
ATOM     19  H   UNL     1       3.927   7.461   3.285  0.00  0.00    +0.000 HD
BRANCH  13  20
ATOM     20  C   UNL     1      -0.860  11.045   4.257  0.00  0.00    +0.000 C 
ATOM     21  C   UNL     1      -1.490  11.310   5.615  0.00  0.00    +0.000 C 
ENDBRANCH  13  20
ENDBRANCH   3   7
BRANCH   1  22
ATOM     22  O   UNL     1       0.901   1.596   1.694  0.00  0.00    +0.000 OA
BRANCH  22  24
ATOM     23  C   UNL     1       0.935  -0.063  -0.042  0.00  0.00    +0.000 C 
ATOM     24  C   UNL     1       0.428   0.304   1.343  0.00  0.00    +0.000 C 
ENDBRANCH  22  24
ENDBRANCH   1  22
BRANCH   6  25
ATOM     25  O   UNL     1       2.760  -0.502   1.125  0.00  0.00    +0.000 OA
BRANCH  25  26
ATOM     26  C   UNL     1       3.683  -1.544   0.842  0.00  0.00    +0.000 C 
ATOM     27  O   UNL     1       4.932  -1.320   0.903  0.00  0.00    +0.000 OA
BRANCH  26  28
ATOM     28  C   UNL     1       3.176  -2.927   0.467  0.00  0.00    +0.000 A 
ATOM     29  C   UNL     1       4.112  -3.984   0.180  0.00  0.00    +0.000 A 
ATOM     30  C   UNL     1       5.528  -3.730   0.249  0.00  0.00    +0.000 A 
ATOM     31  C   UNL     1       6.464  -4.786  -0.037  0.00  0.00    +0.000 A 
ATOM     32  O   UNL     1       1.853  -3.164   0.403  0.00  0.00    +0.000 OA
ENDBRANCH  26  28
ENDBRANCH  25  26
ENDBRANCH   6  25
TORSDOF 7
