REMARK  Name = 
REMARK  6 active torsions:
REMARK  status: ('A' for Active; 'I' for Inactive)
REMARK    1  A    between atoms: C_6  and  C_7
REMARK    2  A    between atoms: C_6  and  C_8
REMARK    3  A    between atoms: C_13  and  C_14
REMARK    4  A    between atoms: C_15  and  C_16
REMARK    5  A    between atoms: C_16  and  O_17
REMARK    6  A    between atoms: O_17  and  C_18
REMARK                            x       y       z     vdW  Elec       q    Type
REMARK                         _______ _______ _______ _____ _____    ______ ____
ROOT
ATOM      1  C   UNL     1       1.067   0.070   0.024  0.00  0.00    +0.000 C 
ATOM      2  C   UNL     1       0.674  -0.135  -1.262  0.00  0.00    +0.000 C 
ATOM      3  C   UNL     1      -0.236  -1.352  -1.254  0.00  0.00    +0.000 C 
ATOM      4  C   UNL     1      -1.619  -0.954  -1.743  0.00  0.00    +0.000 C 
ATOM      5  C   UNL     1      -2.192   0.114  -0.826  0.00  0.00    +0.000 C 
ATOM      6  C   UNL     1      -6.421  -0.185   1.874  0.00  0.00    +0.000 C 
ATOM      7  C   UNL     1      -7.736  -0.240   2.635  0.00  0.00    +0.000 C 
ATOM      8  C   UNL     1      -7.643  -0.220   2.777  0.00  0.00    +0.000 C 
ATOM      9  C   UNL     1      -5.160  -0.184   1.025  0.00  0.00    +0.000 C 
ATOM     10  O   UNL     1      -5.527  -0.377  -0.177  0.00  0.00    +0.000 OA
ATOM     11  C   UNL     1      -4.250   1.033   1.017  0.00  0.00    +0.000 C 
ATOM     12  C   UNL     1      -4.149   1.580  -0.398  0.00  0.00    +0.000 C 
ATOM     13  C   UNL     1      -3.575   0.512  -1.315  0.00  0.00    +0.000 C 
ATOM     14  C   UNL     1      -4.902   0.228  -2.000  0.00  0.00    +0.000 C 
ATOM     15  C   UNL     1       1.935  -0.135  -2.111  0.00  0.00    +0.000 C 
ENDROOT
BRANCH  15  16
ATOM     16  C   UNL     1       3.409  -0.043  -2.472  0.00  0.00    +0.000 C 
BRANCH  16  17
ATOM     17  O   UNL     1       3.543   0.342  -3.832  0.00  0.00    +0.000 OA
BRANCH  17  18
ATOM     18  C   UNL     1       2.990  -0.471  -4.857  0.00  0.00    +0.000 A 
ATOM     19  C   UNL     1       3.125  -0.081  -6.237  0.00  0.00    +0.000 A 
ATOM     20  C   UNL     1       3.821   1.134  -6.577  0.00  0.00    +0.000 A 
ATOM     21  C   UNL     1       3.957   1.524  -7.957  0.00  0.00    +0.000 A 
ATOM     22  C   UNL     1       3.396   0.700  -8.996  0.00  0.00    +0.000 A 
ATOM     23  C   UNL     1       2.700  -0.514  -8.656  0.00  0.00    +0.000 A 
ATOM     24  C   UNL     1       2.140  -1.339  -9.696  0.00  0.00    +0.000 A 
ATOM     25  O   UNL     1       1.526  -2.410  -9.396  0.00  0.00    +0.000 OA
ATOM     26  O   UNL     1       2.266  -0.974 -10.985  0.00  0.00    +0.000 OA
ATOM     27  C   UNL     1       4.652   2.738  -8.297  0.00  0.00    +0.000 A 
ATOM     28  C   UNL     1       2.294  -1.685  -4.517  0.00  0.00    +0.000 A 
ENDBRANCH  17  18
ENDBRANCH  16  17
ENDBRANCH  15  16
TORSDOF 3
