REMARK  Name = 
REMARK  11 active torsions:
REMARK  status: ('A' for Active; 'I' for Inactive)
REMARK    1  A    between atoms: C_1  and  C_2
REMARK    2  A    between atoms: C_2  and  C_3
REMARK    3  A    between atoms: C_3  and  O_4
REMARK    4  A    between atoms: O_4  and  C_5
REMARK    5  A    between atoms: C_8  and  C_9
REMARK    6  A    between atoms: N_11  and  C_12
REMARK    7  A    between atoms: C_12  and  N_14
REMARK    8  A    between atoms: N_14  and  N_15
REMARK    9  A    between atoms: C_16  and  C_18
REMARK   10  A    between atoms: C_19  and  C_20
REMARK   11  A    between atoms: C_28  and  C_29
REMARK                            x       y       z     vdW  Elec       q    Type
REMARK                         _______ _______ _______ _____ _____    ______ ____
ROOT
ATOM      1  N   UNL     1      -0.732   4.604   1.171  0.00  0.00    +0.000 N 
ATOM      2  H   UNL     1      -0.392   3.821   1.730  0.00  0.00    +0.000 HD
ENDROOT
BRANCH   1   3
ATOM      3  N   UNL     1      -0.389   4.696  -0.204  0.00  0.00    +0.000 N 
ATOM      4  C   UNL     1       0.456   3.664  -0.822  0.00  0.00    +0.000 C 
ATOM      5  O   UNL     1       0.763   3.747  -2.052  0.00  0.00    +0.000 OA
ATOM      6  H   UNL     1      -0.729   5.479  -0.763  0.00  0.00    +0.000 HD
BRANCH   4   7
ATOM      7  C   UNL     1       0.963   2.498   0.011  0.00  0.00    +0.000 A 
ATOM      8  C   UNL     1       1.791   1.487  -0.594  0.00  0.00    +0.000 A 
ATOM      9  N   UNL     1       2.255   0.418   0.169  0.00  0.00    +0.000 NA
ATOM     10  O   UNL     1       3.001  -0.493  -0.377  0.00  0.00    +0.000 OA
ATOM     11  C   UNL     1       0.615   2.404   1.405  0.00  0.00    +0.000 A 
ATOM     12  C   UNL     1      -0.259   3.471   2.044  0.00  0.00    +0.000 C 
BRANCH   8  13
ATOM     13  C   UNL     1       2.158   1.586  -2.066  0.00  0.00    +0.000 A 
ATOM     14  C   UNL     1       1.678   2.692  -2.855  0.00  0.00    +0.000 A 
ATOM     15  C   UNL     1       0.850   3.703  -2.250  0.00  0.00    +0.000 A 
ATOM     16  C   UNL     1       0.370   4.808  -3.039  0.00  0.00    +0.000 A 
ATOM     17  C   UNL     1      -0.458   5.819  -2.433  0.00  0.00    +0.000 A 
ATOM     18  C   UNL     1       2.986   0.575  -2.671  0.00  0.00    +0.000 A 
ENDBRANCH   8  13
ENDBRANCH   4   7
ENDBRANCH   1   3
BRANCH   1  19
ATOM     19  C   UNL     1      -1.577   5.636   1.789  0.00  0.00    +0.000 C 
ATOM     20  S   UNL     1      -1.968   5.530   3.357  0.00  0.00    +0.000 S 
BRANCH  19  23
ATOM     21  C   UNL     1      -1.712   6.859  -0.440  0.00  0.00    +0.000 C 
ATOM     22  O   UNL     1      -2.136   7.835  -1.136  0.00  0.00    +0.000 OA
ATOM     23  N   UNL     1      -2.067   6.763   0.984  0.00  0.00    +0.000 N 
ATOM     24  H   UNL     1      -2.654   7.479   1.412  0.00  0.00    +0.000 HD
BRANCH  21  28
ATOM     25  C   UNL     1       0.950   2.571  -0.106  0.00  0.00    +0.000 A 
ATOM     26  C   UNL     1       0.470   3.676  -0.895  0.00  0.00    +0.000 A 
ATOM     27  C   UNL     1      -0.358   4.687  -0.290  0.00  0.00    +0.000 A 
ATOM     28  C   UNL     1      -0.838   5.792  -1.079  0.00  0.00    +0.000 A 
ATOM     29  C   UNL     1      -0.490   5.887  -2.473  0.00  0.00    +0.000 A 
ATOM     30  C   UNL     1       1.778   1.560  -0.711  0.00  0.00    +0.000 A 
BRANCH  25  31
ATOM     31  O   UNL     1       0.607   2.479   1.269  0.00  0.00    +0.000 OA
BRANCH  31  32
ATOM     32  C   UNL     1       1.080   1.389   2.047  0.00  0.00    +0.000 C 
BRANCH  32  34
ATOM     33  C   UNL     1       1.080  -0.053   0.027  0.00  0.00    +0.000 C 
ATOM     34  C   UNL     1       0.574   0.085   1.453  0.00  0.00    +0.000 C 
ENDBRANCH  32  34
ENDBRANCH  31  32
ENDBRANCH  25  31
ENDBRANCH  21  28
ENDBRANCH  19  23
ENDBRANCH   1  19
TORSDOF 9
