REMARK  Name = 
REMARK  7 active torsions:
REMARK  status: ('A' for Active; 'I' for Inactive)
REMARK    1  A    between atoms: C_1  and  O_2
REMARK    2  A    between atoms: O_2  and  C_3
REMARK    3  A    between atoms: C_6  and  C_7
REMARK    4  A    between atoms: C_10  and  C_11
REMARK    5  A    between atoms: C_11  and  O_12
REMARK    6  A    between atoms: O_12  and  C_13
REMARK    7  A    between atoms: N_15  and  C_16
REMARK                            x       y       z     vdW  Elec       q    Type
REMARK                         _______ _______ _______ _____ _____    ______ ____
ROOT
ATOM      1  C   UNL     1      -1.755   0.173   5.930  0.00  0.00    +0.000 A 
ATOM      2  C   UNL     1      -2.103   1.377   5.221  0.00  0.00    +0.000 A 
ATOM      3  C   UNL     1      -1.623   1.587   3.880  0.00  0.00    +0.000 A 
ATOM      4  C   UNL     1      -1.971   2.792   3.171  0.00  0.00    +0.000 A 
ATOM      5  C   UNL     1      -2.799   3.786   3.804  0.00  0.00    +0.000 A 
ATOM      6  C   UNL     1      -2.235  -0.038   7.272  0.00  0.00    +0.000 A 
ENDROOT
BRANCH   1  10
ATOM      7  C   UNL     1       0.907  -1.450   1.947  0.00  0.00    +0.000 A 
ATOM      8  C   UNL     1       0.427  -1.661   3.289  0.00  0.00    +0.000 A 
ATOM      9  C   UNL     1      -0.401  -0.666   3.921  0.00  0.00    +0.000 A 
ATOM     10  C   UNL     1      -0.881  -0.877   5.263  0.00  0.00    +0.000 A 
ATOM     11  C   UNL     1      -0.533  -2.081   5.972  0.00  0.00    +0.000 A 
ATOM     12  C   UNL     1       1.735  -2.445   1.315  0.00  0.00    +0.000 A 
BRANCH   7  14
ATOM     13  C   UNL     1       1.037  -0.056  -0.074  0.00  0.00    +0.000 C 
ATOM     14  O   UNL     1       0.564  -0.263   1.248  0.00  0.00    +0.000 OA
ENDBRANCH   7  14
ENDBRANCH   1  10
BRANCH   4  15
ATOM     15  C   UNL     1      -1.464   3.014   1.755  0.00  0.00    +0.000 C 
BRANCH  15  16
ATOM     16  O   UNL     1      -2.569   3.152   0.874  0.00  0.00    +0.000 OA
BRANCH  16  17
ATOM     17  C   UNL     1      -3.358   1.972   0.915  0.00  0.00    +0.000 C 
ATOM     18  C   UNL     1      -3.864   1.750   2.330  0.00  0.00    +0.000 C 
ATOM     19  N   UNL     1      -4.681   2.900   2.744  0.00  0.00    +0.000 N 
ATOM     20  C   UNL     1      -2.513   0.783   0.486  0.00  0.00    +0.000 C 
BRANCH  19  21
ATOM     21  C   UNL     1      -4.089   4.245   2.786  0.00  0.00    +0.000 C 
ATOM     22  N   UNL     1      -3.581   5.399   2.821  0.00  0.00    +0.000 NA
ENDBRANCH  19  21
ENDBRANCH  16  17
ENDBRANCH  15  16
ENDBRANCH   4  15
TORSDOF 6
