REMARK  Name = 
REMARK  2 active torsions:
REMARK  status: ('A' for Active; 'I' for Inactive)
REMARK    1  A    between atoms: C_4  and  O_5
REMARK    2  A    between atoms: N_9  and  C_10
REMARK                            x       y       z     vdW  Elec       q    Type
REMARK                         _______ _______ _______ _____ _____    ______ ____
ROOT
ATOM      1  O   UNL     1       1.012  -0.069  -0.072  0.00  0.00    +0.000 OA
ATOM      2  C   UNL     1       2.283  -0.069  -0.072  0.00  0.00    +0.000 A 
ATOM      3  C   UNL     1       3.003   1.178  -0.040  0.00  0.00    +0.000 A 
ATOM      4  C   UNL     1       2.283   2.425  -0.008  0.00  0.00    +0.000 A 
ATOM      5  C   UNL     1       0.843   2.425  -0.008  0.00  0.00    +0.000 A 
ATOM      6  S   UNL     1      -0.015   3.910   0.030  0.00  0.00    +0.000 S 
ATOM      7  C   UNL     1      -1.730   3.910   0.030  0.00  0.00    +0.000 A 
ATOM      8  N   UNL     1      -2.465   2.637  -0.003  0.00  0.00    +0.000 N 
ATOM      9  N   UNL     1      -2.426   5.116   0.060  0.00  0.00    +0.000 NA
ATOM     10  C   UNL     1       0.123   1.178  -0.040  0.00  0.00    +0.000 A 
ATOM     11  N   UNL     1       2.979  -1.274  -0.103  0.00  0.00    +0.000 N 
ATOM     12  H   UNL     1      -1.955   1.754  -0.025  0.00  0.00    +0.000 HD
ATOM     13  H   UNL     1       2.469  -2.157  -0.125  0.00  0.00    +0.000 HD
ENDROOT
BRANCH   8  14
ATOM     14  C   UNL     1      -3.935   2.637  -0.003  0.00  0.00    +0.000 A 
ATOM     15  C   UNL     1      -4.655   3.884   0.029  0.00  0.00    +0.000 A 
ATOM     16  C   UNL     1      -3.935   5.131   0.061  0.00  0.00    +0.000 A 
ATOM     17  C   UNL     1      -4.655   6.378   0.093  0.00  0.00    +0.000 A 
ATOM     18  F   UNL     1      -3.990   7.529   0.122  0.00  0.00    +0.000 F 
ATOM     19  C   UNL     1      -6.095   6.378   0.093  0.00  0.00    +0.000 A 
ATOM     20  C   UNL     1      -4.655   1.390  -0.035  0.00  0.00    +0.000 A 
ENDBRANCH   8  14
BRANCH   4  21
ATOM     21  O   UNL     1       2.993   3.654   0.023  0.00  0.00    +0.000 OA
ATOM     22  H   UNL     1       3.993   3.654   0.023  0.00  0.00    +0.000 HD
ENDBRANCH   4  21
TORSDOF 2
