REMARK  Name = 
REMARK  9 active torsions:
REMARK  status: ('A' for Active; 'I' for Inactive)
REMARK    1  A    between atoms: C_1  and  N_2
REMARK    2  A    between atoms: C_3  and  C_5
REMARK    3  A    between atoms: C_7  and  C_8
REMARK    4  A    between atoms: C_14  and  C_16
REMARK    5  A    between atoms: C_21  and  O_22
REMARK    6  A    between atoms: O_22  and  C_23
REMARK    7  A    between atoms: C_23  and  C_24
REMARK    8  A    between atoms: N_27  and  C_28
REMARK    9  A    between atoms: C_28  and  C_29
REMARK                            x       y       z     vdW  Elec       q    Type
REMARK                         _______ _______ _______ _____ _____    ______ ____
ROOT
ATOM      1  C   UNL     1      -0.638  -1.046   2.225  0.00  0.00    +0.000 A 
ATOM      2  S   UNL     1      -1.624  -1.701   3.466  0.00  0.00    +0.000 S 
ATOM      3  C   UNL     1      -2.039  -0.744   4.827  0.00  0.00    +0.000 A 
ATOM      4  N   UNL     1      -2.840  -1.276   5.835  0.00  0.00    +0.000 NA
ATOM      5  C   UNL     1      -0.158   0.309   2.327  0.00  0.00    +0.000 A 
ENDROOT
BRANCH   3   6
ATOM      6  C   UNL     1      -1.532   0.685   4.934  0.00  0.00    +0.000 A 
ATOM      7  C   UNL     1      -0.704   1.236   3.892  0.00  0.00    +0.000 A 
ATOM      8  C   UNL     1      -0.356   0.432   2.749  0.00  0.00    +0.000 A 
ATOM      9  N   UNL     1       0.445   0.964   1.741  0.00  0.00    +0.000 NA
ATOM     10  C   UNL     1       0.909   2.274   1.839  0.00  0.00    +0.000 A 
ATOM     11  N   UNL     1       1.754   2.835   0.776  0.00  0.00    +0.000 N 
ATOM     12  C   UNL     1       2.109   2.015  -0.391  0.00  0.00    +0.000 C 
ATOM     13  O   UNL     1       2.840   2.501  -1.311  0.00  0.00    +0.000 OA
ATOM     14  C   UNL     1      -1.880   1.489   6.078  0.00  0.00    +0.000 A 
ATOM     15  H   UNL     1       2.094   3.794   0.848  0.00  0.00    +0.000 HD
BRANCH  12  16
ATOM     16  C   UNL     1       1.602   0.586  -0.498  0.00  0.00    +0.000 C 
ATOM     17  C   UNL     1       0.082   0.586  -0.498  0.00  0.00    +0.000 C 
ATOM     18  C   UNL     1       2.109  -0.221   0.686  0.00  0.00    +0.000 C 
ENDBRANCH  12  16
ENDBRANCH   3   6
BRANCH   1  21
ATOM     19  C   UNL     1       1.064   0.050   0.058  0.00  0.00    +0.000 C 
ATOM     20  N   UNL     1       0.574  -1.332  -0.045  0.00  0.00    +0.000 N 
ATOM     21  C   UNL     1      -0.271  -1.894   1.019  0.00  0.00    +0.000 C 
ATOM     22  O   UNL     1      -0.695  -3.089   0.929  0.00  0.00    +0.000 OA
ATOM     23  H   UNL     1       0.820  -1.901  -0.855  0.00  0.00    +0.000 HD
ENDBRANCH   1  21
BRANCH   5  24
ATOM     24  O   UNL     1       0.658   0.851   1.299  0.00  0.00    +0.000 OA
BRANCH  24  25
ATOM     25  C   UNL     1       1.131   2.186   1.399  0.00  0.00    +0.000 C 
BRANCH  25  26
ATOM     26  C   UNL     1      -0.051   3.139   1.470  0.00  0.00    +0.000 C 
ATOM     27  C   UNL     1       0.456   4.568   1.577  0.00  0.00    +0.000 C 
ATOM     28  C   UNL     1       1.300   4.899   0.358  0.00  0.00    +0.000 C 
ATOM     29  N   UNL     1       0.484   4.758  -0.857  0.00  0.00    +0.000 NA
ATOM     30  C   UNL     1      -0.006   3.376  -0.960  0.00  0.00    +0.000 C 
ATOM     31  C   UNL     1      -0.895   2.808   2.690  0.00  0.00    +0.000 C 
BRANCH  29  32
ATOM     32  C   UNL     1       1.300   5.078  -2.036  0.00  0.00    +0.000 C 
BRANCH  32  33
ATOM     33  C   UNL     1       2.482   4.125  -2.107  0.00  0.00    +0.000 A 
ATOM     34  C   UNL     1       3.434   4.077  -1.028  0.00  0.00    +0.000 A 
ATOM     35  C   UNL     1       3.266   4.931   0.119  0.00  0.00    +0.000 A 
ATOM     36  C   UNL     1       4.218   4.883   1.199  0.00  0.00    +0.000 A 
ATOM     37  F   UNL     1       4.063   5.672   2.258  0.00  0.00    +0.000 F 
ATOM     38  C   UNL     1       5.339   3.980   1.131  0.00  0.00    +0.000 A 
ATOM     39  F   UNL     1       6.218   3.936   2.128  0.00  0.00    +0.000 F 
ATOM     40  C   UNL     1       2.651   3.271  -3.255  0.00  0.00    +0.000 A 
ENDBRANCH  32  33
ENDBRANCH  29  32
ENDBRANCH  25  26
ENDBRANCH  24  25
ENDBRANCH   5  24
TORSDOF 8
