MODEL 1
REMARK VINA RESULT:    -8.584      0.000      0.000
REMARK INTER + INTRA:         -11.461
REMARK INTER:                 -10.843
REMARK INTRA:                  -0.619
REMARK UNBOUND:                -0.619
REMARK  Name = 
REMARK  7 active torsions:
REMARK  status: ('A' for Active; 'I' for Inactive)
REMARK    1  A    between atoms: C_1  and  O_2
REMARK    2  A    between atoms: O_2  and  C_3
REMARK    3  A    between atoms: C_5  and  C_6
REMARK    4  A    between atoms: N_7  and  N_8
REMARK    5  A    between atoms: C_9  and  C_11
REMARK    6  A    between atoms: C_14  and  C_15
REMARK    7  A    between atoms: C_26  and  O_27
REMARK                            x       y       z     vdW  Elec       q    Type
REMARK                         _______ _______ _______ _____ _____    ______ ____
ROOT
ATOM      1  N   UNL     1      10.089   3.343  42.239  0.00  0.00    +0.000 N 
ATOM      2  C   UNL     1       9.536   3.492  43.593  0.00  0.00    +0.000 C 
ATOM      3  O   UNL     1       9.750   4.557  44.252  0.00  0.00    +0.000 OA
ATOM      4  H   UNL     1      10.643   4.095  41.828  0.00  0.00    +0.000 HD
ENDROOT
BRANCH   2   5
ATOM      5  C   UNL     1       8.710   2.373  44.204  0.00  0.00    +0.000 A 
ATOM      6  C   UNL     1       9.365   1.257  44.836  0.00  0.00    +0.000 A 
ATOM      7  C   UNL     1      10.804   1.202  44.889  0.00  0.00    +0.000 A 
ATOM      8  C   UNL     1      11.459   0.086  45.521  0.00  0.00    +0.000 A 
ATOM      9  C   UNL     1      10.676  -0.975  46.100  0.00  0.00    +0.000 A 
ATOM     10  C   UNL     1       7.272   2.427  44.151  0.00  0.00    +0.000 A 
BRANCH   8  11
ATOM     11  C   UNL     1      12.977   0.028  45.577  0.00  0.00    +0.000 A 
ATOM     12  C   UNL     1      13.702  -0.782  44.632  0.00  0.00    +0.000 A 
ATOM     13  C   UNL     1      12.988  -1.536  43.635  0.00  0.00    +0.000 A 
ATOM     14  C   UNL     1      13.713  -2.346  42.689  0.00  0.00    +0.000 A 
ATOM     15  C   UNL     1      13.000  -3.101  41.691  0.00  0.00    +0.000 A 
ATOM     16  C   UNL     1      13.690   0.783  46.575  0.00  0.00    +0.000 A 
ENDBRANCH   8  11
ENDBRANCH   2   5
BRANCH   1  18
ATOM     17  C   UNL     1       9.001   2.161  40.496  0.00  0.00    +0.000 C 
ATOM     18  N   UNL     1       9.850   2.153  41.502  0.00  0.00    +0.000 NA
BRANCH  17  21
ATOM     19  C   UNL     1       8.250   5.651  38.961  0.00  0.00    +0.000 A 
ATOM     20  C   UNL     1       8.937   4.435  39.313  0.00  0.00    +0.000 A 
ATOM     21  C   UNL     1       8.276   3.444  40.124  0.00  0.00    +0.000 A 
ATOM     22  C   UNL     1       6.930   3.670  40.582  0.00  0.00    +0.000 A 
ATOM     23  C   UNL     1       6.244   4.887  40.230  0.00  0.00    +0.000 A 
ATOM     24 BR   UNL     1       7.142   6.234  39.127  0.00  0.00    +0.000 Br
ATOM     25  C   UNL     1       8.911   6.641  38.150  0.00  0.00    +0.000 A 
BRANCH  19  27
ATOM     26  C   UNL     1       5.824   5.570  38.566  0.00  0.00    +0.000 C 
ATOM     27  O   UNL     1       6.923   5.873  39.413  0.00  0.00    +0.000 OA
ENDBRANCH  19  27
BRANCH  25  28
ATOM     28  O   UNL     1       8.234   7.841  37.804  0.00  0.00    +0.000 OA
ATOM     29  H   UNL     1       7.628   7.861  37.009  0.00  0.00    +0.000 HD
ENDBRANCH  25  28
ENDBRANCH  17  21
ENDBRANCH   1  18
TORSDOF 6
ENDMDL
MODEL 2
REMARK VINA RESULT:    -8.509     12.592     15.740
REMARK INTER + INTRA:         -11.366
REMARK INTER:                 -10.357
REMARK INTRA:                  -1.009
REMARK UNBOUND:                -0.619
REMARK  Name = 
REMARK  7 active torsions:
REMARK  status: ('A' for Active; 'I' for Inactive)
REMARK    1  A    between atoms: C_1  and  O_2
REMARK    2  A    between atoms: O_2  and  C_3
REMARK    3  A    between atoms: C_5  and  C_6
REMARK    4  A    between atoms: N_7  and  N_8
REMARK    5  A    between atoms: C_9  and  C_11
REMARK    6  A    between atoms: C_14  and  C_15
REMARK    7  A    between atoms: C_26  and  O_27
REMARK                            x       y       z     vdW  Elec       q    Type
REMARK                         _______ _______ _______ _____ _____    ______ ____
ROOT
ATOM      1  N   UNL     1      15.073   4.093  29.176  0.00  0.00    +0.000 N 
ATOM      2  C   UNL     1      15.695   3.564  27.954  0.00  0.00    +0.000 C 
ATOM      3  O   UNL     1      15.906   4.331  26.964  0.00  0.00    +0.000 OA
ATOM      4  H   UNL     1      14.810   5.078  29.229  0.00  0.00    +0.000 HD
ENDROOT
BRANCH   2   5
ATOM      5  C   UNL     1      16.087   2.097  27.876  0.00  0.00    +0.000 A 
ATOM      6  C   UNL     1      15.123   1.116  27.448  0.00  0.00    +0.000 A 
ATOM      7  C   UNL     1      13.788   1.525  27.095  0.00  0.00    +0.000 A 
ATOM      8  C   UNL     1      12.823   0.545  26.667  0.00  0.00    +0.000 A 
ATOM      9  C   UNL     1      13.195  -0.845  26.593  0.00  0.00    +0.000 A 
ATOM     10  C   UNL     1      17.421   1.688  28.229  0.00  0.00    +0.000 A 
BRANCH   8  11
ATOM     11  C   UNL     1      11.415   0.976  26.294  0.00  0.00    +0.000 A 
ATOM     12  C   UNL     1      11.098   1.295  24.926  0.00  0.00    +0.000 A 
ATOM     13  C   UNL     1      12.117   1.205  23.911  0.00  0.00    +0.000 A 
ATOM     14  C   UNL     1      11.800   1.524  22.542  0.00  0.00    +0.000 A 
ATOM     15  C   UNL     1      12.818   1.435  21.528  0.00  0.00    +0.000 A 
ATOM     16  C   UNL     1      10.396   1.065  27.308  0.00  0.00    +0.000 A 
ENDBRANCH   8  11
ENDBRANCH   2   5
BRANCH   1  18
ATOM     17  C   UNL     1      13.699   3.308  30.941  0.00  0.00    +0.000 C 
ATOM     18  N   UNL     1      14.837   3.236  30.283  0.00  0.00    +0.000 NA
BRANCH  17  21
ATOM     19  C   UNL     1      10.669   4.902  29.104  0.00  0.00    +0.000 A 
ATOM     20  C   UNL     1      11.674   3.953  29.507  0.00  0.00    +0.000 A 
ATOM     21  C   UNL     1      12.638   4.310  30.516  0.00  0.00    +0.000 A 
ATOM     22  C   UNL     1      12.597   5.615  31.121  0.00  0.00    +0.000 A 
ATOM     23  C   UNL     1      11.592   6.565  30.717  0.00  0.00    +0.000 A 
ATOM     24 BR   UNL     1      10.280   6.079  29.346  0.00  0.00    +0.000 Br
ATOM     25  C   UNL     1       9.705   4.545  28.096  0.00  0.00    +0.000 A 
BRANCH  19  27
ATOM     26  C   UNL     1      11.288   7.282  29.078  0.00  0.00    +0.000 C 
ATOM     27  O   UNL     1      10.628   6.189  29.701  0.00  0.00    +0.000 OA
ENDBRANCH  19  27
BRANCH  25  28
ATOM     28  O   UNL     1       8.714   5.481  27.698  0.00  0.00    +0.000 OA
ATOM     29  H   UNL     1       8.778   6.434  27.995  0.00  0.00    +0.000 HD
ENDBRANCH  25  28
ENDBRANCH  17  21
ENDBRANCH   1  18
TORSDOF 6
ENDMDL
MODEL 3
REMARK VINA RESULT:    -8.136     12.288     15.663
REMARK INTER + INTRA:         -10.895
REMARK INTER:                 -11.260
REMARK INTRA:                   0.365
REMARK UNBOUND:                -0.619
REMARK  Name = 
REMARK  7 active torsions:
REMARK  status: ('A' for Active; 'I' for Inactive)
REMARK    1  A    between atoms: C_1  and  O_2
REMARK    2  A    between atoms: O_2  and  C_3
REMARK    3  A    between atoms: C_5  and  C_6
REMARK    4  A    between atoms: N_7  and  N_8
REMARK    5  A    between atoms: C_9  and  C_11
REMARK    6  A    between atoms: C_14  and  C_15
REMARK    7  A    between atoms: C_26  and  O_27
REMARK                            x       y       z     vdW  Elec       q    Type
REMARK                         _______ _______ _______ _____ _____    ______ ____
ROOT
ATOM      1  N   UNL     1      14.875   3.806  29.069  0.00  0.00    +0.000 N 
ATOM      2  C   UNL     1      15.440   3.296  27.811  0.00  0.00    +0.000 C 
ATOM      3  O   UNL     1      15.515   4.054  26.795  0.00  0.00    +0.000 OA
ATOM      4  H   UNL     1      14.544   4.769  29.126  0.00  0.00    +0.000 HD
ENDROOT
BRANCH   2   5
ATOM      5  C   UNL     1      15.936   1.861  27.728  0.00  0.00    +0.000 A 
ATOM      6  C   UNL     1      15.041   0.814  27.306  0.00  0.00    +0.000 A 
ATOM      7  C   UNL     1      13.677   1.127  26.963  0.00  0.00    +0.000 A 
ATOM      8  C   UNL     1      12.782   0.080  26.541  0.00  0.00    +0.000 A 
ATOM      9  C   UNL     1      13.252  -1.279  26.461  0.00  0.00    +0.000 A 
ATOM     10  C   UNL     1      17.298   1.548  28.070  0.00  0.00    +0.000 A 
BRANCH   8  11
ATOM     11  C   UNL     1      11.344   0.410  26.179  0.00  0.00    +0.000 A 
ATOM     12  C   UNL     1      11.018   0.844  24.846  0.00  0.00    +0.000 A 
ATOM     13  C   UNL     1      12.056   0.965  23.854  0.00  0.00    +0.000 A 
ATOM     14  C   UNL     1      11.730   1.399  22.520  0.00  0.00    +0.000 A 
ATOM     15  C   UNL     1      12.767   1.520  21.528  0.00  0.00    +0.000 A 
ATOM     16  C   UNL     1      10.306   0.289  27.171  0.00  0.00    +0.000 A 
ENDBRANCH   8  11
ENDBRANCH   2   5
BRANCH   1  18
ATOM     17  C   UNL     1      14.275   3.411  31.328  0.00  0.00    +0.000 C 
ATOM     18  N   UNL     1      14.792   2.958  30.205  0.00  0.00    +0.000 NA
BRANCH  17  21
ATOM     19  C   UNL     1      13.948   7.238  30.737  0.00  0.00    +0.000 A 
ATOM     20  C   UNL     1      14.428   5.882  30.661  0.00  0.00    +0.000 A 
ATOM     21  C   UNL     1      13.767   4.842  31.407  0.00  0.00    +0.000 A 
ATOM     22  C   UNL     1      12.627   5.157  32.228  0.00  0.00    +0.000 A 
ATOM     23  C   UNL     1      12.148   6.514  32.304  0.00  0.00    +0.000 A 
ATOM     24 BR   UNL     1      13.046   7.929  31.289  0.00  0.00    +0.000 Br
ATOM     25  C   UNL     1      14.608   8.278  29.992  0.00  0.00    +0.000 A 
BRANCH  19  27
ATOM     26  C   UNL     1      13.012   8.068  32.855  0.00  0.00    +0.000 C 
ATOM     27  O   UNL     1      12.824   7.549  31.547  0.00  0.00    +0.000 OA
ENDBRANCH  19  27
BRANCH  25  28
ATOM     28  O   UNL     1      14.135   9.615  30.067  0.00  0.00    +0.000 OA
ATOM     29  H   UNL     1      13.978  10.041  30.958  0.00  0.00    +0.000 HD
ENDBRANCH  25  28
ENDBRANCH  17  21
ENDBRANCH   1  18
TORSDOF 6
ENDMDL
MODEL 4
REMARK VINA RESULT:    -8.077     11.728     15.187
REMARK INTER + INTRA:         -10.820
REMARK INTER:                 -10.448
REMARK INTRA:                  -0.372
REMARK UNBOUND:                -0.619
REMARK  Name = 
REMARK  7 active torsions:
REMARK  status: ('A' for Active; 'I' for Inactive)
REMARK    1  A    between atoms: C_1  and  O_2
REMARK    2  A    between atoms: O_2  and  C_3
REMARK    3  A    between atoms: C_5  and  C_6
REMARK    4  A    between atoms: N_7  and  N_8
REMARK    5  A    between atoms: C_9  and  C_11
REMARK    6  A    between atoms: C_14  and  C_15
REMARK    7  A    between atoms: C_26  and  O_27
REMARK                            x       y       z     vdW  Elec       q    Type
REMARK                         _______ _______ _______ _____ _____    ______ ____
ROOT
ATOM      1  N   UNL     1      13.266   3.440  29.618  0.00  0.00    +0.000 N 
ATOM      2  C   UNL     1      14.620   3.032  29.219  0.00  0.00    +0.000 C 
ATOM      3  O   UNL     1      15.417   2.545  30.081  0.00  0.00    +0.000 OA
ATOM      4  H   UNL     1      12.965   3.332  30.587  0.00  0.00    +0.000 HD
ENDROOT
BRANCH   2   5
ATOM      5  C   UNL     1      15.068   3.191  27.775  0.00  0.00    +0.000 A 
ATOM      6  C   UNL     1      14.614   2.261  26.774  0.00  0.00    +0.000 A 
ATOM      7  C   UNL     1      13.736   1.179  27.141  0.00  0.00    +0.000 A 
ATOM      8  C   UNL     1      13.283   0.248  26.140  0.00  0.00    +0.000 A 
ATOM      9  C   UNL     1      13.706   0.399  24.772  0.00  0.00    +0.000 A 
ATOM     10  C   UNL     1      15.944   4.272  27.408  0.00  0.00    +0.000 A 
BRANCH   8  11
ATOM     11  C   UNL     1      12.357  -0.893  26.527  0.00  0.00    +0.000 A 
ATOM     12  C   UNL     1      10.971  -0.630  26.816  0.00  0.00    +0.000 A 
ATOM     13  C   UNL     1      10.462   0.715  26.738  0.00  0.00    +0.000 A 
ATOM     14  C   UNL     1       9.076   0.979  27.027  0.00  0.00    +0.000 A 
ATOM     15  C   UNL     1       8.567   2.324  26.949  0.00  0.00    +0.000 A 
ATOM     16  C   UNL     1      12.865  -2.238  26.605  0.00  0.00    +0.000 A 
ENDBRANCH   8  11
ENDBRANCH   2   5
BRANCH   1  18
ATOM     17  C   UNL     1      12.170   5.283  28.609  0.00  0.00    +0.000 C 
ATOM     18  N   UNL     1      12.375   3.984  28.655  0.00  0.00    +0.000 NA
BRANCH  17  21
ATOM     19  C   UNL     1      13.081   7.201  31.863  0.00  0.00    +0.000 A 
ATOM     20  C   UNL     1      12.403   6.331  30.937  0.00  0.00    +0.000 A 
ATOM     21  C   UNL     1      12.886   6.201  29.586  0.00  0.00    +0.000 A 
ATOM     22  C   UNL     1      14.045   6.941  29.162  0.00  0.00    +0.000 A 
ATOM     23  C   UNL     1      14.722   7.812  30.088  0.00  0.00    +0.000 A 
ATOM     24 BR   UNL     1      14.066   7.988  31.926  0.00  0.00    +0.000 Br
ATOM     25  C   UNL     1      12.598   7.331  33.213  0.00  0.00    +0.000 A 
BRANCH  19  27
ATOM     26  C   UNL     1      14.067   9.150  30.733  0.00  0.00    +0.000 C 
ATOM     27  O   UNL     1      14.224   7.931  31.445  0.00  0.00    +0.000 OA
ENDBRANCH  19  27
BRANCH  25  28
ATOM     28  O   UNL     1      13.265   8.189  34.127  0.00  0.00    +0.000 OA
ATOM     29  H   UNL     1      12.822   9.030  34.438  0.00  0.00    +0.000 HD
ENDBRANCH  25  28
ENDBRANCH  17  21
ENDBRANCH   1  18
TORSDOF 6
ENDMDL
MODEL 5
REMARK VINA RESULT:    -7.951     12.134     15.434
REMARK INTER + INTRA:         -10.661
REMARK INTER:                 -11.320
REMARK INTRA:                   0.659
REMARK UNBOUND:                -0.619
REMARK  Name = 
REMARK  7 active torsions:
REMARK  status: ('A' for Active; 'I' for Inactive)
REMARK    1  A    between atoms: C_1  and  O_2
REMARK    2  A    between atoms: O_2  and  C_3
REMARK    3  A    between atoms: C_5  and  C_6
REMARK    4  A    between atoms: N_7  and  N_8
REMARK    5  A    between atoms: C_9  and  C_11
REMARK    6  A    between atoms: C_14  and  C_15
REMARK    7  A    between atoms: C_26  and  O_27
REMARK                            x       y       z     vdW  Elec       q    Type
REMARK                         _______ _______ _______ _____ _____    ______ ____
ROOT
ATOM      1  N   UNL     1      14.829   3.762  29.072  0.00  0.00    +0.000 N 
ATOM      2  C   UNL     1      15.467   3.267  27.843  0.00  0.00    +0.000 C 
ATOM      3  O   UNL     1      15.529   4.012  26.815  0.00  0.00    +0.000 OA
ATOM      4  H   UNL     1      14.437   4.704  29.099  0.00  0.00    +0.000 HD
ENDROOT
BRANCH   2   5
ATOM      5  C   UNL     1      16.053   1.865  27.803  0.00  0.00    +0.000 A 
ATOM      6  C   UNL     1      15.417   0.842  27.013  0.00  0.00    +0.000 A 
ATOM      7  C   UNL     1      14.227   1.148  26.261  0.00  0.00    +0.000 A 
ATOM      8  C   UNL     1      13.591   0.126  25.471  0.00  0.00    +0.000 A 
ATOM      9  C   UNL     1      14.146  -1.203  25.433  0.00  0.00    +0.000 A 
ATOM     10  C   UNL     1      17.242   1.559  28.554  0.00  0.00    +0.000 A 
BRANCH   8  11
ATOM     11  C   UNL     1      12.336   0.448  24.678  0.00  0.00    +0.000 A 
ATOM     12  C   UNL     1      11.039   0.190  25.247  0.00  0.00    +0.000 A 
ATOM     13  C   UNL     1      10.931  -0.374  26.568  0.00  0.00    +0.000 A 
ATOM     14  C   UNL     1       9.633  -0.632  27.138  0.00  0.00    +0.000 A 
ATOM     15  C   UNL     1       9.526  -1.196  28.459  0.00  0.00    +0.000 A 
ATOM     16  C   UNL     1      12.443   1.012  23.357  0.00  0.00    +0.000 A 
ENDBRANCH   8  11
ENDBRANCH   2   5
BRANCH   1  18
ATOM     17  C   UNL     1      14.265   3.402  31.345  0.00  0.00    +0.000 C 
ATOM     18  N   UNL     1      14.760   2.930  30.221  0.00  0.00    +0.000 NA
BRANCH  17  21
ATOM     19  C   UNL     1      13.971   7.228  30.733  0.00  0.00    +0.000 A 
ATOM     20  C   UNL     1      14.441   5.868  30.667  0.00  0.00    +0.000 A 
ATOM     21  C   UNL     1      13.768   4.837  31.414  0.00  0.00    +0.000 A 
ATOM     22  C   UNL     1      12.626   5.165  32.226  0.00  0.00    +0.000 A 
ATOM     23  C   UNL     1      12.156   6.525  32.293  0.00  0.00    +0.000 A 
ATOM     24 BR   UNL     1      13.071   7.928  31.276  0.00  0.00    +0.000 Br
ATOM     25  C   UNL     1      14.643   8.259  29.986  0.00  0.00    +0.000 A 
BRANCH  19  27
ATOM     26  C   UNL     1      13.026   7.972  32.878  0.00  0.00    +0.000 C 
ATOM     27  O   UNL     1      12.844   7.551  31.534  0.00  0.00    +0.000 OA
ENDBRANCH  19  27
BRANCH  25  28
ATOM     28  O   UNL     1      14.180   9.600  30.051  0.00  0.00    +0.000 OA
ATOM     29  H   UNL     1      14.646  10.316  29.531  0.00  0.00    +0.000 HD
ENDBRANCH  25  28
ENDBRANCH  17  21
ENDBRANCH   1  18
TORSDOF 6
ENDMDL
MODEL 6
REMARK VINA RESULT:    -7.909     12.769     15.620
REMARK INTER + INTRA:         -10.609
REMARK INTER:                  -9.984
REMARK INTRA:                  -0.625
REMARK UNBOUND:                -0.619
REMARK  Name = 
REMARK  7 active torsions:
REMARK  status: ('A' for Active; 'I' for Inactive)
REMARK    1  A    between atoms: C_1  and  O_2
REMARK    2  A    between atoms: O_2  and  C_3
REMARK    3  A    between atoms: C_5  and  C_6
REMARK    4  A    between atoms: N_7  and  N_8
REMARK    5  A    between atoms: C_9  and  C_11
REMARK    6  A    between atoms: C_14  and  C_15
REMARK    7  A    between atoms: C_26  and  O_27
REMARK                            x       y       z     vdW  Elec       q    Type
REMARK                         _______ _______ _______ _____ _____    ______ ____
ROOT
ATOM      1  N   UNL     1      14.944   4.249  28.901  0.00  0.00    +0.000 N 
ATOM      2  C   UNL     1      15.515   3.584  27.721  0.00  0.00    +0.000 C 
ATOM      3  O   UNL     1      15.590   4.205  26.615  0.00  0.00    +0.000 OA
ATOM      4  H   UNL     1      14.608   5.210  28.831  0.00  0.00    +0.000 HD
ENDROOT
BRANCH   2   5
ATOM      5  C   UNL     1      16.016   2.152  27.825  0.00  0.00    +0.000 A 
ATOM      6  C   UNL     1      15.316   1.094  27.143  0.00  0.00    +0.000 A 
ATOM      7  C   UNL     1      14.142   1.392  26.363  0.00  0.00    +0.000 A 
ATOM      8  C   UNL     1      13.443   0.334  25.681  0.00  0.00    +0.000 A 
ATOM      9  C   UNL     1      13.917  -1.023  25.779  0.00  0.00    +0.000 A 
ATOM     10  C   UNL     1      17.189   1.854  28.604  0.00  0.00    +0.000 A 
BRANCH   8  11
ATOM     11  C   UNL     1      12.205   0.648  24.858  0.00  0.00    +0.000 A 
ATOM     12  C   UNL     1      10.896   0.372  25.392  0.00  0.00    +0.000 A 
ATOM     13  C   UNL     1      10.761  -0.202  26.706  0.00  0.00    +0.000 A 
ATOM     14  C   UNL     1       9.452  -0.478  27.241  0.00  0.00    +0.000 A 
ATOM     15  C   UNL     1       9.317  -1.052  28.555  0.00  0.00    +0.000 A 
ATOM     16  C   UNL     1      12.339   1.222  23.544  0.00  0.00    +0.000 A 
ENDBRANCH   8  11
ENDBRANCH   2   5
BRANCH   1  18
ATOM     17  C   UNL     1      13.699   3.432  30.744  0.00  0.00    +0.000 C 
ATOM     18  N   UNL     1      14.860   3.556  30.137  0.00  0.00    +0.000 NA
BRANCH  17  21
ATOM     19  C   UNL     1      10.711   4.032  28.334  0.00  0.00    +0.000 A 
ATOM     20  C   UNL     1      11.895   3.462  28.923  0.00  0.00    +0.000 A 
ATOM     21  C   UNL     1      12.448   4.034  30.123  0.00  0.00    +0.000 A 
ATOM     22  C   UNL     1      11.818   5.174  30.735  0.00  0.00    +0.000 A 
ATOM     23  C   UNL     1      10.633   5.744  30.145  0.00  0.00    +0.000 A 
ATOM     24 BR   UNL     1       9.880   4.966  28.512  0.00  0.00    +0.000 Br
ATOM     25  C   UNL     1      10.158   3.461  27.133  0.00  0.00    +0.000 A 
BRANCH  19  27
ATOM     26  C   UNL     1       9.037   4.969  29.872  0.00  0.00    +0.000 C 
ATOM     27  O   UNL     1      10.089   5.156  28.937  0.00  0.00    +0.000 OA
ENDBRANCH  19  27
BRANCH  25  28
ATOM     28  O   UNL     1       8.991   4.023  26.552  0.00  0.00    +0.000 OA
ATOM     29  H   UNL     1       9.062   4.578  25.723  0.00  0.00    +0.000 HD
ENDBRANCH  25  28
ENDBRANCH  17  21
ENDBRANCH   1  18
TORSDOF 6
ENDMDL
MODEL 7
REMARK VINA RESULT:    -7.808     12.161     15.560
REMARK INTER + INTRA:         -10.481
REMARK INTER:                  -9.986
REMARK INTRA:                  -0.495
REMARK UNBOUND:                -0.619
REMARK  Name = 
REMARK  7 active torsions:
REMARK  status: ('A' for Active; 'I' for Inactive)
REMARK    1  A    between atoms: C_1  and  O_2
REMARK    2  A    between atoms: O_2  and  C_3
REMARK    3  A    between atoms: C_5  and  C_6
REMARK    4  A    between atoms: N_7  and  N_8
REMARK    5  A    between atoms: C_9  and  C_11
REMARK    6  A    between atoms: C_14  and  C_15
REMARK    7  A    between atoms: C_26  and  O_27
REMARK                            x       y       z     vdW  Elec       q    Type
REMARK                         _______ _______ _______ _____ _____    ______ ____
ROOT
ATOM      1  N   UNL     1       9.592   3.202  28.079  0.00  0.00    +0.000 N 
ATOM      2  C   UNL     1       9.386   2.074  27.158  0.00  0.00    +0.000 C 
ATOM      3  O   UNL     1       9.124   0.919  27.616  0.00  0.00    +0.000 OA
ATOM      4  H   UNL     1       9.523   3.056  29.087  0.00  0.00    +0.000 HD
ENDROOT
BRANCH   2   5
ATOM      5  C   UNL     1       9.488   2.292  25.657  0.00  0.00    +0.000 A 
ATOM      6  C   UNL     1      10.634   1.803  24.935  0.00  0.00    +0.000 A 
ATOM      7  C   UNL     1      11.684   1.108  25.635  0.00  0.00    +0.000 A 
ATOM      8  C   UNL     1      12.830   0.619  24.913  0.00  0.00    +0.000 A 
ATOM      9  C   UNL     1      12.926   0.825  23.491  0.00  0.00    +0.000 A 
ATOM     10  C   UNL     1       8.439   2.986  24.957  0.00  0.00    +0.000 A 
BRANCH   8  11
ATOM     11  C   UNL     1      13.937  -0.114  25.651  0.00  0.00    +0.000 A 
ATOM     12  C   UNL     1      14.856   0.619  26.483  0.00  0.00    +0.000 A 
ATOM     13  C   UNL     1      14.725   2.047  26.615  0.00  0.00    +0.000 A 
ATOM     14  C   UNL     1      15.643   2.781  27.448  0.00  0.00    +0.000 A 
ATOM     15  C   UNL     1      15.512   4.209  27.581  0.00  0.00    +0.000 A 
ATOM     16  C   UNL     1      14.068  -1.542  25.519  0.00  0.00    +0.000 A 
ENDBRANCH   8  11
ENDBRANCH   2   5
BRANCH   1  18
ATOM     17  C   UNL     1      10.668   5.306  28.244  0.00  0.00    +0.000 C 
ATOM     18  N   UNL     1       9.885   4.493  27.567  0.00  0.00    +0.000 NA
BRANCH  17  21
ATOM     19  C   UNL     1      13.082   3.760  30.867  0.00  0.00    +0.000 A 
ATOM     20  C   UNL     1      12.524   4.181  29.607  0.00  0.00    +0.000 A 
ATOM     21  C   UNL     1      11.257   4.864  29.574  0.00  0.00    +0.000 A 
ATOM     22  C   UNL     1      10.548   5.127  30.798  0.00  0.00    +0.000 A 
ATOM     23  C   UNL     1      11.106   4.705  32.058  0.00  0.00    +0.000 A 
ATOM     24 BR   UNL     1      12.830   3.777  32.104  0.00  0.00    +0.000 Br
ATOM     25  C   UNL     1      14.349   3.077  30.900  0.00  0.00    +0.000 A 
BRANCH  19  27
ATOM     26  C   UNL     1      12.417   5.317  32.650  0.00  0.00    +0.000 C 
ATOM     27  O   UNL     1      12.383   4.020  32.075  0.00  0.00    +0.000 OA
ENDBRANCH  19  27
BRANCH  25  28
ATOM     28  O   UNL     1      14.899   2.662  32.142  0.00  0.00    +0.000 OA
ATOM     29  H   UNL     1      14.969   1.689  32.358  0.00  0.00    +0.000 HD
ENDBRANCH  25  28
ENDBRANCH  17  21
ENDBRANCH   1  18
TORSDOF 6
ENDMDL
MODEL 8
REMARK VINA RESULT:    -7.737     12.791     16.025
REMARK INTER + INTRA:         -10.392
REMARK INTER:                  -9.387
REMARK INTRA:                  -1.004
REMARK UNBOUND:                -0.619
REMARK  Name = 
REMARK  7 active torsions:
REMARK  status: ('A' for Active; 'I' for Inactive)
REMARK    1  A    between atoms: C_1  and  O_2
REMARK    2  A    between atoms: O_2  and  C_3
REMARK    3  A    between atoms: C_5  and  C_6
REMARK    4  A    between atoms: N_7  and  N_8
REMARK    5  A    between atoms: C_9  and  C_11
REMARK    6  A    between atoms: C_14  and  C_15
REMARK    7  A    between atoms: C_26  and  O_27
REMARK                            x       y       z     vdW  Elec       q    Type
REMARK                         _______ _______ _______ _____ _____    ______ ____
ROOT
ATOM      1  N   UNL     1      14.977   1.261  27.532  0.00  0.00    +0.000 N 
ATOM      2  C   UNL     1      15.352   2.252  28.551  0.00  0.00    +0.000 C 
ATOM      3  O   UNL     1      15.605   1.878  29.738  0.00  0.00    +0.000 OA
ATOM      4  H   UNL     1      14.922   0.272  27.778  0.00  0.00    +0.000 HD
ENDROOT
BRANCH   2   5
ATOM      5  C   UNL     1      15.435   3.725  28.183  0.00  0.00    +0.000 A 
ATOM      6  C   UNL     1      14.331   4.603  28.473  0.00  0.00    +0.000 A 
ATOM      7  C   UNL     1      13.147   4.085  29.112  0.00  0.00    +0.000 A 
ATOM      8  C   UNL     1      12.043   4.963  29.402  0.00  0.00    +0.000 A 
ATOM      9  C   UNL     1      12.122   6.358  29.054  0.00  0.00    +0.000 A 
ATOM     10  C   UNL     1      16.617   4.242  27.545  0.00  0.00    +0.000 A 
BRANCH   8  11
ATOM     11  C   UNL     1      10.795   4.418  30.075  0.00  0.00    +0.000 A 
ATOM     12  C   UNL     1       9.736   3.852  29.279  0.00  0.00    +0.000 A 
ATOM     13  C   UNL     1       9.861   3.803  27.846  0.00  0.00    +0.000 A 
ATOM     14  C   UNL     1       8.802   3.236  27.049  0.00  0.00    +0.000 A 
ATOM     15  C   UNL     1       8.927   3.188  25.615  0.00  0.00    +0.000 A 
ATOM     16  C   UNL     1      10.670   4.466  31.509  0.00  0.00    +0.000 A 
ENDBRANCH   8  11
ENDBRANCH   2   5
BRANCH   1  18
ATOM     17  C   UNL     1      13.687   1.143  25.548  0.00  0.00    +0.000 C 
ATOM     18  N   UNL     1      14.694   1.678  26.205  0.00  0.00    +0.000 NA
BRANCH  17  21
ATOM     19  C   UNL     1      10.732  -0.580  27.391  0.00  0.00    +0.000 A 
ATOM     20  C   UNL     1      11.546   0.429  26.764  0.00  0.00    +0.000 A 
ATOM     21  C   UNL     1      12.828   0.078  26.210  0.00  0.00    +0.000 A 
ATOM     22  C   UNL     1      13.296  -1.281  26.283  0.00  0.00    +0.000 A 
ATOM     23  C   UNL     1      12.482  -2.290  26.911  0.00  0.00    +0.000 A 
ATOM     24 BR   UNL     1      10.738  -1.813  27.665  0.00  0.00    +0.000 Br
ATOM     25  C   UNL     1       9.450  -0.229  27.945  0.00  0.00    +0.000 A 
BRANCH  19  27
ATOM     26  C   UNL     1      10.851  -2.846  26.442  0.00  0.00    +0.000 C 
ATOM     27  O   UNL     1      11.194  -1.920  27.464  0.00  0.00    +0.000 OA
ENDBRANCH  19  27
BRANCH  25  28
ATOM     28  O   UNL     1       8.648  -1.223  28.565  0.00  0.00    +0.000 OA
ATOM     29  H   UNL     1       7.748  -0.985  28.929  0.00  0.00    +0.000 HD
ENDBRANCH  25  28
ENDBRANCH  17  21
ENDBRANCH   1  18
TORSDOF 6
ENDMDL
MODEL 9
REMARK VINA RESULT:    -7.665     12.587     15.756
REMARK INTER + INTRA:         -10.300
REMARK INTER:                 -10.010
REMARK INTRA:                  -0.291
REMARK UNBOUND:                -0.619
REMARK  Name = 
REMARK  7 active torsions:
REMARK  status: ('A' for Active; 'I' for Inactive)
REMARK    1  A    between atoms: C_1  and  O_2
REMARK    2  A    between atoms: O_2  and  C_3
REMARK    3  A    between atoms: C_5  and  C_6
REMARK    4  A    between atoms: N_7  and  N_8
REMARK    5  A    between atoms: C_9  and  C_11
REMARK    6  A    between atoms: C_14  and  C_15
REMARK    7  A    between atoms: C_26  and  O_27
REMARK                            x       y       z     vdW  Elec       q    Type
REMARK                         _______ _______ _______ _____ _____    ______ ____
ROOT
ATOM      1  N   UNL     1      14.064   4.161  28.311  0.00  0.00    +0.000 N 
ATOM      2  C   UNL     1      15.302   3.661  27.696  0.00  0.00    +0.000 C 
ATOM      3  O   UNL     1      16.032   4.443  27.011  0.00  0.00    +0.000 OA
ATOM      4  H   UNL     1      13.792   5.136  28.189  0.00  0.00    +0.000 HD
ENDROOT
BRANCH   2   5
ATOM      5  C   UNL     1      15.708   2.207  27.878  0.00  0.00    +0.000 A 
ATOM      6  C   UNL     1      15.122   1.187  27.048  0.00  0.00    +0.000 A 
ATOM      7  C   UNL     1      14.151   1.543  26.045  0.00  0.00    +0.000 A 
ATOM      8  C   UNL     1      13.565   0.523  25.215  0.00  0.00    +0.000 A 
ATOM      9  C   UNL     1      13.950  -0.854  25.388  0.00  0.00    +0.000 A 
ATOM     10  C   UNL     1      16.678   1.851  28.880  0.00  0.00    +0.000 A 
BRANCH   8  11
ATOM     11  C   UNL     1      12.541   0.898  24.157  0.00  0.00    +0.000 A 
ATOM     12  C   UNL     1      11.290   1.495  24.546  0.00  0.00    +0.000 A 
ATOM     13  C   UNL     1      11.009   1.736  25.938  0.00  0.00    +0.000 A 
ATOM     14  C   UNL     1       9.757   2.333  26.328  0.00  0.00    +0.000 A 
ATOM     15  C   UNL     1       9.476   2.574  27.720  0.00  0.00    +0.000 A 
ATOM     16  C   UNL     1      12.822   0.658  22.765  0.00  0.00    +0.000 A 
ENDBRANCH   8  11
ENDBRANCH   2   5
BRANCH   1  18
ATOM     17  C   UNL     1      12.370   3.779  29.924  0.00  0.00    +0.000 C 
ATOM     18  N   UNL     1      13.248   3.286  29.076  0.00  0.00    +0.000 NA
BRANCH  17  21
ATOM     19  C   UNL     1      12.640   7.364  31.399  0.00  0.00    +0.000 A 
ATOM     20  C   UNL     1      12.773   5.938  31.247  0.00  0.00    +0.000 A 
ATOM     21  C   UNL     1      12.230   5.285  30.084  0.00  0.00    +0.000 A 
ATOM     22  C   UNL     1      11.556   6.057  29.073  0.00  0.00    +0.000 A 
ATOM     23  C   UNL     1      11.422   7.483  29.227  0.00  0.00    +0.000 A 
ATOM     24 BR   UNL     1      12.161   8.372  30.809  0.00  0.00    +0.000 Br
ATOM     25  C   UNL     1      13.183   8.017  32.563  0.00  0.00    +0.000 A 
BRANCH  19  27
ATOM     26  C   UNL     1      12.722   8.746  29.367  0.00  0.00    +0.000 C 
ATOM     27  O   UNL     1      11.975   8.125  30.403  0.00  0.00    +0.000 OA
ENDBRANCH  19  27
BRANCH  25  28
ATOM     28  O   UNL     1      13.051   9.423  32.713  0.00  0.00    +0.000 OA
ATOM     29  H   UNL     1      12.148   9.849  32.666  0.00  0.00    +0.000 HD
ENDBRANCH  25  28
ENDBRANCH  17  21
ENDBRANCH   1  18
TORSDOF 6
ENDMDL
MODEL 10
REMARK VINA RESULT:    -7.555     13.902     16.509
REMARK INTER + INTRA:         -10.162
REMARK INTER:                  -9.512
REMARK INTRA:                  -0.650
REMARK UNBOUND:                -0.619
REMARK  Name = 
REMARK  7 active torsions:
REMARK  status: ('A' for Active; 'I' for Inactive)
REMARK    1  A    between atoms: C_1  and  O_2
REMARK    2  A    between atoms: O_2  and  C_3
REMARK    3  A    between atoms: C_5  and  C_6
REMARK    4  A    between atoms: N_7  and  N_8
REMARK    5  A    between atoms: C_9  and  C_11
REMARK    6  A    between atoms: C_14  and  C_15
REMARK    7  A    between atoms: C_26  and  O_27
REMARK                            x       y       z     vdW  Elec       q    Type
REMARK                         _______ _______ _______ _____ _____    ______ ____
ROOT
ATOM      1  N   UNL     1       9.382   4.284  27.269  0.00  0.00    +0.000 N 
ATOM      2  C   UNL     1       9.155   3.391  26.124  0.00  0.00    +0.000 C 
ATOM      3  O   UNL     1       9.366   3.807  24.942  0.00  0.00    +0.000 OA
ATOM      4  H   UNL     1       9.711   5.237  27.115  0.00  0.00    +0.000 HD
ENDROOT
BRANCH   2   5
ATOM      5  C   UNL     1       8.666   1.970  26.353  0.00  0.00    +0.000 A 
ATOM      6  C   UNL     1       9.598   0.873  26.310  0.00  0.00    +0.000 A 
ATOM      7  C   UNL     1      10.992   1.122  26.049  0.00  0.00    +0.000 A 
ATOM      8  C   UNL     1      11.924   0.024  26.005  0.00  0.00    +0.000 A 
ATOM      9  C   UNL     1      11.461  -1.322  26.223  0.00  0.00    +0.000 A 
ATOM     10  C   UNL     1       7.273   1.721  26.614  0.00  0.00    +0.000 A 
BRANCH   8  11
ATOM     11  C   UNL     1      13.395   0.287  25.730  0.00  0.00    +0.000 A 
ATOM     12  C   UNL     1      13.815   0.737  24.428  0.00  0.00    +0.000 A 
ATOM     13  C   UNL     1      12.840   0.938  23.387  0.00  0.00    +0.000 A 
ATOM     14  C   UNL     1      13.260   1.389  22.084  0.00  0.00    +0.000 A 
ATOM     15  C   UNL     1      12.285   1.590  21.044  0.00  0.00    +0.000 A 
ATOM     16  C   UNL     1      14.370   0.086  26.771  0.00  0.00    +0.000 A 
ENDBRANCH   8  11
ENDBRANCH   2   5
BRANCH   1  18
ATOM     17  C   UNL     1      10.099   3.895  29.494  0.00  0.00    +0.000 C 
ATOM     18  N   UNL     1       9.146   3.819  28.590  0.00  0.00    +0.000 NA
BRANCH  17  21
ATOM     19  C   UNL     1      13.865   4.161  28.573  0.00  0.00    +0.000 A 
ATOM     20  C   UNL     1      12.582   3.607  28.923  0.00  0.00    +0.000 A 
ATOM     21  C   UNL     1      11.453   4.479  29.124  0.00  0.00    +0.000 A 
ATOM     22  C   UNL     1      11.607   5.902  28.976  0.00  0.00    +0.000 A 
ATOM     23  C   UNL     1      12.890   6.455  28.627  0.00  0.00    +0.000 A 
ATOM     24 BR   UNL     1      14.426   5.270  28.352  0.00  0.00    +0.000 Br
ATOM     25  C   UNL     1      14.994   3.289  28.372  0.00  0.00    +0.000 A 
BRANCH  19  27
ATOM     26  C   UNL     1      14.416   6.355  29.537  0.00  0.00    +0.000 C 
ATOM     27  O   UNL     1      14.017   5.565  28.427  0.00  0.00    +0.000 OA
ENDBRANCH  19  27
BRANCH  25  28
ATOM     28  O   UNL     1      16.259   3.835  28.028  0.00  0.00    +0.000 OA
ATOM     29  H   UNL     1      16.909   3.294  27.494  0.00  0.00    +0.000 HD
ENDBRANCH  25  28
ENDBRANCH  17  21
ENDBRANCH   1  18
TORSDOF 6
ENDMDL
