REMARK  Name = 
REMARK  9 active torsions:
REMARK  status: ('A' for Active; 'I' for Inactive)
REMARK    1  A    between atoms: C_1  and  C_2
REMARK    2  A    between atoms: C_2  and  C_4
REMARK    3  A    between atoms: C_5  and  O_6
REMARK    4  A    between atoms: C_10  and  O_11
REMARK    5  A    between atoms: C_12  and  C_13
REMARK    6  A    between atoms: C_22  and  C_23
REMARK    7  A    between atoms: C_22  and  C_24
REMARK    8  A    between atoms: C_27  and  C_28
REMARK    9  A    between atoms: C_27  and  C_29
REMARK                            x       y       z     vdW  Elec       q    Type
REMARK                         _______ _______ _______ _____ _____    ______ ____
ROOT
ATOM      1  C   UNL     1       0.839   2.235   1.558  0.00  0.00    +0.000 A 
ATOM      2  C   UNL     1       0.359   3.574   1.784  0.00  0.00    +0.000 A 
ATOM      3  C   UNL     1       0.707   4.269   2.997  0.00  0.00    +0.000 A 
ATOM      4  C   UNL     1       1.535   3.625   3.983  0.00  0.00    +0.000 A 
ATOM      5  C   UNL     1       2.015   2.286   3.758  0.00  0.00    +0.000 A 
ATOM      6  C   UNL     1       1.667   1.591   2.545  0.00  0.00    +0.000 A 
ATOM      7  C   UNL     1       2.889   1.606   4.799  0.00  0.00    +0.000 C 
ATOM      8  C   UNL     1       2.129   1.507   6.112  0.00  0.00    +0.000 C 
ATOM      9  C   UNL     1       1.695   2.637   6.733  0.00  0.00    +0.000 C 
ATOM     10  O   UNL     1       1.878   4.310   5.179  0.00  0.00    +0.000 OA
ATOM     11  C   UNL     1       0.935   2.538   8.046  0.00  0.00    +0.000 C 
ATOM     12  C   UNL     1      -0.331   1.724   7.838  0.00  0.00    +0.000 C 
ATOM     13  C   UNL     1       1.809   1.858   9.087  0.00  0.00    +0.000 C 
ATOM     14  C   UNL     1       0.568   3.933   8.525  0.00  0.00    +0.000 C 
ATOM     15  O   UNL     1       0.904   4.949   7.840  0.00  0.00    +0.000 OA
ATOM     16  C   UNL     1      -0.201   4.112   9.824  0.00  0.00    +0.000 C 
ATOM     17  C   UNL     1       0.603   3.529  10.974  0.00  0.00    +0.000 C 
ATOM     18  C   UNL     1      -0.439   5.593  10.072  0.00  0.00    +0.000 C 
ATOM     19  C   UNL     1       1.854   0.146   6.730  0.00  0.00    +0.000 C 
ATOM     20  O   UNL     1       2.259  -0.909   6.149  0.00  0.00    +0.000 OA
ENDROOT
BRANCH   7  21
ATOM     21  C   UNL     1       4.156   2.420   5.007  0.00  0.00    +0.000 A 
ATOM     22  C   UNL     1       5.050   2.656   3.903  0.00  0.00    +0.000 A 
ATOM     23  C   UNL     1       4.744   2.120   2.601  0.00  0.00    +0.000 A 
ATOM     24  C   UNL     1       5.638   2.356   1.497  0.00  0.00    +0.000 A 
ATOM     25  C   UNL     1       5.331   1.820   0.196  0.00  0.00    +0.000 A 
ATOM     26  C   UNL     1       4.462   2.956   6.308  0.00  0.00    +0.000 A 
ENDBRANCH   7  21
BRANCH   1  28
ATOM     27  C   UNL     1       0.979   0.089   0.040  0.00  0.00    +0.000 C 
ATOM     28  C   UNL     1       0.472   1.502   0.278  0.00  0.00    +0.000 C 
ATOM     29  O   UNL     1      -0.259   2.071  -0.592  0.00  0.00    +0.000 OA
ENDBRANCH   1  28
BRANCH   2  30
ATOM     30  O   UNL     1      -0.457   4.210   0.811  0.00  0.00    +0.000 OA
ATOM     31  H   UNL     1      -0.699   3.727  -0.031  0.00  0.00    +0.000 HD
ENDBRANCH   2  30
BRANCH   6  32
ATOM     32  O   UNL     1       2.140   0.271   2.322  0.00  0.00    +0.000 OA
ATOM     33  H   UNL     1       2.715  -0.176   3.007  0.00  0.00    +0.000 HD
ENDBRANCH   6  32
TORSDOF 4
