REMARK  Name = 
REMARK  8 active torsions:
REMARK  status: ('A' for Active; 'I' for Inactive)
REMARK    1  A    between atoms: C_1  and  O_2
REMARK    2  A    between atoms: O_2  and  C_3
REMARK    3  A    between atoms: C_7  and  C_8
REMARK    4  A    between atoms: C_8  and  N_9
REMARK    5  A    between atoms: C_10  and  C_12
REMARK    6  A    between atoms: C_12  and  C_13
REMARK    7  A    between atoms: C_13  and  C_14
REMARK    8  A    between atoms: C_21  and  C_22
REMARK                            x       y       z     vdW  Elec       q    Type
REMARK                         _______ _______ _______ _____ _____    ______ ____
ROOT
ATOM      1  C   UNL     1      -2.278   1.219   3.536  0.00  0.00    +0.000 C 
ATOM      2  C   UNL     1      -2.405  -0.203   4.058  0.00  0.00    +0.000 C 
ATOM      3  C   UNL     1      -1.037  -0.866   4.058  0.00  0.00    +0.000 C 
ATOM      4  C   UNL     1      -0.094  -0.080   4.954  0.00  0.00    +0.000 C 
ATOM      5  N   UNL     1      -0.626  -0.054   6.324  0.00  0.00    +0.000 N 
ATOM      6  C   UNL     1      -1.945   0.540   6.589  0.00  0.00    +0.000 A 
ATOM      7  C   UNL     1      -2.466   0.565   7.931  0.00  0.00    +0.000 A 
ATOM      8  C   UNL     1      -1.697   0.008   9.013  0.00  0.00    +0.000 A 
ATOM      9  C   UNL     1      -2.248   0.035  10.430  0.00  0.00    +0.000 C 
ATOM     10  N   UNL     1      -0.448  -0.555   8.762  0.00  0.00    +0.000 NA
ATOM     11  C   UNL     1       0.297  -1.093   9.809  0.00  0.00    +0.000 A 
ATOM     12  N   UNL     1       1.615  -1.687   9.544  0.00  0.00    +0.000 N 
ATOM     13  N   UNL     1      -2.689   1.078   5.542  0.00  0.00    +0.000 NA
ATOM     14  C   UNL     1      -3.646   1.883   3.536  0.00  0.00    +0.000 C 
ATOM     15  H   UNL     1       1.984  -1.705   8.594  0.00  0.00    +0.000 HD
ATOM     16  H   UNL     1       2.160  -2.081  10.311  0.00  0.00    +0.000 HD
ENDROOT
BRANCH   1  17
ATOM     17  C   UNL     1      -1.728   1.193   2.120  0.00  0.00    +0.000 C 
BRANCH  17  18
ATOM     18  C   UNL     1      -1.601   2.615   1.599  0.00  0.00    +0.000 C 
BRANCH  18  20
ATOM     19  N   UNL     1      -0.970   3.572   3.921  0.00  0.00    +0.000 N 
ATOM     20  C   UNL     1      -0.657   3.401   2.495  0.00  0.00    +0.000 C 
ATOM     21  O   UNL     1       0.402   3.910   2.011  0.00  0.00    +0.000 OA
ATOM     22  H   UNL     1      -0.336   4.099   4.522  0.00  0.00    +0.000 HD
BRANCH  19  23
ATOM     23  C   UNL     1      -2.195   2.983   4.481  0.00  0.00    +0.000 C 
BRANCH  23  28
ATOM     24  C   UNL     1       0.789  -0.694   2.295  0.00  0.00    +0.000 A 
ATOM     25  C   UNL     1       0.309  -0.487   3.637  0.00  0.00    +0.000 A 
ATOM     26  C   UNL     1      -0.519   0.652   3.937  0.00  0.00    +0.000 A 
ATOM     27  C   UNL     1      -0.999   0.860   5.279  0.00  0.00    +0.000 A 
ATOM     28  C   UNL     1      -1.827   1.999   5.580  0.00  0.00    +0.000 A 
ATOM     29  C   UNL     1       1.617  -1.834   1.994  0.00  0.00    +0.000 A 
BRANCH  24  31
ATOM     30  C   UNL     1       0.919   0.020  -0.055  0.00  0.00    +0.000 C 
ATOM     31  O   UNL     1       0.446   0.225   1.268  0.00  0.00    +0.000 OA
ENDBRANCH  24  31
ENDBRANCH  23  28
ENDBRANCH  19  23
ENDBRANCH  18  20
ENDBRANCH  17  18
ENDBRANCH   1  17
TORSDOF 6
