REMARK  Name = 
REMARK  7 active torsions:
REMARK  status: ('A' for Active; 'I' for Inactive)
REMARK    1  A    between atoms: C_1  and  O_2
REMARK    2  A    between atoms: O_2  and  C_3
REMARK    3  A    between atoms: C_3  and  C_4
REMARK    4  A    between atoms: C_4  and  N_5
REMARK    5  A    between atoms: C_6  and  C_8
REMARK    6  A    between atoms: N_14  and  C_15
REMARK    7  A    between atoms: C_15  and  C_16
REMARK                            x       y       z     vdW  Elec       q    Type
REMARK                         _______ _______ _______ _____ _____    ______ ____
ROOT
ATOM      1  C   UNL     1       2.232  -1.617   4.268  0.00  0.00    +0.000 C 
ATOM      2  C   UNL     1       0.965  -1.479   5.096  0.00  0.00    +0.000 C 
ATOM      3  C   UNL     1       0.205  -2.795   5.084  0.00  0.00    +0.000 C 
ATOM      4  N   UNL     1       1.050  -3.854   5.655  0.00  0.00    +0.000 N 
ATOM      5  C   UNL     1       0.606  -4.584   6.851  0.00  0.00    +0.000 C 
ATOM      6  O   UNL     1       1.337  -5.500   7.344  0.00  0.00    +0.000 OA
ATOM      7  N   UNL     1      -0.683  -4.256   7.476  0.00  0.00    +0.000 N 
ATOM      8  C   UNL     1       2.339  -4.182   5.029  0.00  0.00    +0.000 C 
ATOM      9  C   UNL     1       2.992  -0.301   4.279  0.00  0.00    +0.000 C 
ATOM     10  H   UNL     1      -0.991  -4.763   8.306  0.00  0.00    +0.000 HD
ENDROOT
BRANCH   1  12
ATOM     11  N   UNL     1       1.019  -1.072   2.045  0.00  0.00    +0.000 N 
ATOM     12  C   UNL     1       1.864  -1.978   2.837  0.00  0.00    +0.000 C 
ATOM     13  O   UNL     1       2.288  -3.061   2.326  0.00  0.00    +0.000 OA
ATOM     14  H   UNL     1       0.773  -1.314   1.085  0.00  0.00    +0.000 HD
BRANCH  11  15
ATOM     15  C   UNL     1       0.529   0.181   2.636  0.00  0.00    +0.000 C 
BRANCH  15  16
ATOM     16  C   UNL     1       1.036   1.359   1.820  0.00  0.00    +0.000 C 
BRANCH  16  18
ATOM     17  C   UNL     1       1.036   0.037  -0.086  0.00  0.00    +0.000 C 
ATOM     18  O   UNL     1       0.563   1.248   0.485  0.00  0.00    +0.000 OA
ENDBRANCH  16  18
ENDBRANCH  15  16
ENDBRANCH  11  15
ENDBRANCH   1  12
BRANCH   7  19
ATOM     19  C   UNL     1      -1.528  -3.197   6.906  0.00  0.00    +0.000 C 
BRANCH  19  20
ATOM     20  C   UNL     1      -2.871  -3.783   6.501  0.00  0.00    +0.000 A 
ATOM     21  C   UNL     1      -2.930  -4.840   5.524  0.00  0.00    +0.000 A 
ATOM     22  C   UNL     1      -1.717  -5.340   4.931  0.00  0.00    +0.000 A 
ATOM     23  C   UNL     1      -1.776  -6.397   3.954  0.00  0.00    +0.000 A 
ATOM     24 CL   UNL     1      -0.277  -7.016   3.220  0.00  0.00    +0.000 Cl
ATOM     25  C   UNL     1      -3.048  -6.952   3.570  0.00  0.00    +0.000 A 
ATOM     26  C   UNL     1      -4.084  -3.282   7.094  0.00  0.00    +0.000 A 
ATOM     27 CL   UNL     1      -4.011  -1.977   8.302  0.00  0.00    +0.000 Cl
ENDBRANCH  19  20
ENDBRANCH   7  19
TORSDOF 6
