REMARK  Name = 
REMARK  9 active torsions:
REMARK  status: ('A' for Active; 'I' for Inactive)
REMARK    1  A    between atoms: C_2  and  C_10
REMARK    2  A    between atoms: N_3  and  C_4
REMARK    3  A    between atoms: C_14  and  C_15
REMARK    4  A    between atoms: N_17  and  C_18
REMARK    5  A    between atoms: C_18  and  C_19
REMARK    6  A    between atoms: C_19  and  N_20
REMARK    7  A    between atoms: C_21  and  C_23
REMARK    8  A    between atoms: C_27  and  C_28
REMARK    9  A    between atoms: N_30  and  C_31
REMARK                            x       y       z     vdW  Elec       q    Type
REMARK                         _______ _______ _______ _____ _____    ______ ____
ROOT
ATOM      1  C   UNL     1       0.857  -4.939   1.427  0.00  0.00    +0.000 C 
ENDROOT
BRANCH   1   4
ATOM      2  C   UNL     1       0.857  -2.484   0.753  0.00  0.00    +0.000 C 
ATOM      3  O   UNL     1       0.222  -1.423   0.461  0.00  0.00    +0.000 OA
ATOM      4  N   UNL     1       0.122  -3.712   1.090  0.00  0.00    +0.000 N 
ATOM      5  H   UNL     1      -0.898  -3.712   1.090  0.00  0.00    +0.000 HD
BRANCH   2  10
ATOM      6  C   UNL     1       3.097  -1.281   0.422  0.00  0.00    +0.000 A 
ATOM      7  N   UNL     1       4.490  -1.281   0.422  0.00  0.00    +0.000 NA
ATOM      8  C   UNL     1       5.187  -2.444   0.742  0.00  0.00    +0.000 A 
ATOM      9  N   UNL     1       4.490  -3.608   1.061  0.00  0.00    +0.000 N 
ATOM     10  C   UNL     1       2.377  -2.484   0.753  0.00  0.00    +0.000 A 
ATOM     11  H   UNL     1       3.470  -3.608   1.061  0.00  0.00    +0.000 HD
BRANCH   6  13
ATOM     12  O   UNL     1       1.066  -0.012   0.074  0.00  0.00    +0.000 OA
ATOM     13  C   UNL     1       2.337  -0.012   0.074  0.00  0.00    +0.000 C 
ATOM     14  N   UNL     1       3.072   1.216  -0.263  0.00  0.00    +0.000 N 
ATOM     15  H   UNL     1       2.562   2.067  -0.497  0.00  0.00    +0.000 HD
BRANCH  14  16
ATOM     16  C   UNL     1       4.542   1.216  -0.263  0.00  0.00    +0.000 A 
ATOM     17  C   UNL     1       5.262   0.013   0.067  0.00  0.00    +0.000 A 
ATOM     18  C   UNL     1       4.542  -1.190   0.397  0.00  0.00    +0.000 A 
ATOM     19  C   UNL     1       5.262  -2.392   0.728  0.00  0.00    +0.000 A 
ATOM     20  C   UNL     1       4.542  -3.595   1.058  0.00  0.00    +0.000 A 
ATOM     21  C   UNL     1       5.262   2.418  -0.594  0.00  0.00    +0.000 A 
ENDBRANCH  14  16
ENDBRANCH   6  13
ENDBRANCH   2  10
ENDBRANCH   1   4
BRANCH   1  22
ATOM     22  C   UNL     1       0.490  -5.379   2.835  0.00  0.00    +0.000 C 
BRANCH  22  23
ATOM     23  N   UNL     1      -0.955  -5.638   2.906  0.00  0.00    +0.000 N 
ATOM     24  C   UNL     1      -1.445  -6.974   3.273  0.00  0.00    +0.000 C 
ATOM     25  O   UNL     1      -2.695  -7.198   3.335  0.00  0.00    +0.000 OA
ATOM     26  H   UNL     1      -1.618  -4.890   2.701  0.00  0.00    +0.000 HD
BRANCH  24  27
ATOM     27  C   UNL     1      -0.457  -8.089   3.579  0.00  0.00    +0.000 A 
ATOM     28  N   UNL     1      -0.922  -9.355   3.927  0.00  0.00    +0.000 N 
ATOM     29  C   UNL     1      -2.291  -9.600   3.994  0.00  0.00    +0.000 A 
ATOM     30  N   UNL     1      -2.755 -10.867   4.342  0.00  0.00    +0.000 NA
ATOM     31  C   UNL     1       0.959  -7.835   3.509  0.00  0.00    +0.000 A 
ATOM     32  H   UNL     1      -0.259 -10.102   4.132  0.00  0.00    +0.000 HD
BRANCH  31  33
ATOM     33  C   UNL     1       1.465  -6.453   3.130  0.00  0.00    +0.000 C 
ATOM     34  O   UNL     1       0.639  -5.521   2.874  0.00  0.00    +0.000 OA
ATOM     35  N   UNL     1       2.910  -6.194   3.059  0.00  0.00    +0.000 N 
ATOM     36  H   UNL     1       3.250  -5.267   2.804  0.00  0.00    +0.000 HD
BRANCH  35  37
ATOM     37  C   UNL     1       3.866  -7.271   3.355  0.00  0.00    +0.000 A 
ATOM     38  C   UNL     1       3.386  -8.581   3.714  0.00  0.00    +0.000 A 
ATOM     39  C   UNL     1       1.970  -8.834   3.784  0.00  0.00    +0.000 A 
ATOM     40  C   UNL     1       1.490 -10.144   4.144  0.00  0.00    +0.000 A 
ATOM     41  C   UNL     1       0.074 -10.397   4.213  0.00  0.00    +0.000 A 
ATOM     42  C   UNL     1       5.282  -7.017   3.285  0.00  0.00    +0.000 A 
ENDBRANCH  35  37
ENDBRANCH  31  33
ENDBRANCH  24  27
ENDBRANCH  22  23
ENDBRANCH   1  22
TORSDOF 9
