REMARK  Name = 
REMARK  7 active torsions:
REMARK  status: ('A' for Active; 'I' for Inactive)
REMARK    1  A    between atoms: C_1  and  C_2
REMARK    2  A    between atoms: C_2  and  S_3
REMARK    3  A    between atoms: S_3  and  N_6
REMARK    4  A    between atoms: C_8  and  C_9
REMARK    5  A    between atoms: C_8  and  N_12
REMARK    6  A    between atoms: C_9  and  C_10
REMARK    7  A    between atoms: C_14  and  C_15
REMARK                            x       y       z     vdW  Elec       q    Type
REMARK                         _______ _______ _______ _____ _____    ______ ____
ROOT
ATOM      1  N   UNL     1       3.333   0.686   3.955  0.00  0.00    +0.000 N 
ATOM      2  C   UNL     1       2.996   1.893   4.563  0.00  0.00    +0.000 A 
ATOM      3  C   UNL     1       2.168   1.899   5.742  0.00  0.00    +0.000 A 
ATOM      4  C   UNL     1       1.688   0.657   6.291  0.00  0.00    +0.000 A 
ATOM      5  N   UNL     1       4.106   0.680   2.854  0.00  0.00    +0.000 NA
ENDROOT
BRANCH   3   6
ATOM      6  C   UNL     1       1.801   3.216   6.405  0.00  0.00    +0.000 A 
ATOM      7  N   UNL     1       2.265   4.417   5.874  0.00  0.00    +0.000 NA
ATOM      8  C   UNL     1       1.929   5.624   6.482  0.00  0.00    +0.000 A 
ATOM      9  N   UNL     1       1.128   5.630   7.622  0.00  0.00    +0.000 NA
ATOM     10  C   UNL     1       0.664   4.430   8.153  0.00  0.00    +0.000 A 
ATOM     11  N   UNL     1      -0.137   4.436   9.293  0.00  0.00    +0.000 N 
ATOM     12  C   UNL     1      -0.473   5.643   9.901  0.00  0.00    +0.000 A 
ATOM     13  C   UNL     1      -1.301   5.649  11.079  0.00  0.00    +0.000 A 
ATOM     14  C   UNL     1       1.012   3.182   7.524  0.00  0.00    +0.000 A 
ATOM     15  H   UNL     1      -0.477   3.556   9.682  0.00  0.00    +0.000 HD
ENDBRANCH   3   6
BRANCH   1  18
ATOM     16  N   UNL     1       2.859  -1.591   2.293  0.00  0.00    +0.000 NA
ATOM     17  C   UNL     1       3.349  -1.739   3.671  0.00  0.00    +0.000 C 
ATOM     18  C   UNL     1       2.843  -0.582   4.516  0.00  0.00    +0.000 C 
ATOM     19  C   UNL     1       3.349  -0.324   1.732  0.00  0.00    +0.000 C 
BRANCH  16  20
ATOM     20  S   UNL     1       1.099  -1.591   2.293  0.00  0.00    +0.000 S 
ATOM     21  O   UNL     1       0.589  -0.426   3.144  0.00  0.00    +0.000 OA
ATOM     22  O   UNL     1       0.589  -2.911   2.877  0.00  0.00    +0.000 OA
BRANCH  20  24
ATOM     23  C   UNL     1       1.003  -0.099   0.016  0.00  0.00    +0.000 C 
ATOM     24  C   UNL     1       0.496  -1.409   0.596  0.00  0.00    +0.000 C 
ENDBRANCH  20  24
ENDBRANCH  16  20
BRANCH  18  25
ATOM     25  C   UNL     1       3.349  -0.735   5.941  0.00  0.00    +0.000 C 
BRANCH  25  26
ATOM     26  C   UNL     1       4.869  -0.735   5.941  0.00  0.00    +0.000 C 
ATOM     27  N   UNL     1       6.130  -0.735   5.941  0.00  0.00    +0.000 NA
ENDBRANCH  25  26
ENDBRANCH  18  25
ENDBRANCH   1  18
TORSDOF 6
