REMARK  Name = 
REMARK  9 active torsions:
REMARK  status: ('A' for Active; 'I' for Inactive)
REMARK    1  A    between atoms: C_1  and  O_2
REMARK    2  A    between atoms: O_2  and  C_3
REMARK    3  A    between atoms: C_5  and  N_6
REMARK    4  A    between atoms: C_7  and  C_9
REMARK    5  A    between atoms: C_12  and  C_13
REMARK    6  A    between atoms: C_14  and  C_15
REMARK    7  A    between atoms: C_16  and  C_17
REMARK    8  A    between atoms: C_28  and  O_29
REMARK    9  A    between atoms: O_29  and  C_30
REMARK                            x       y       z     vdW  Elec       q    Type
REMARK                         _______ _______ _______ _____ _____    ______ ____
ROOT
ATOM      1  C   UNL     1      -2.059   4.820   2.456  0.00  0.00    +0.000 A 
ATOM      2  C   UNL     1      -2.887   5.959   2.155  0.00  0.00    +0.000 A 
ATOM      3  C   UNL     1      -3.367   6.801   3.220  0.00  0.00    +0.000 A 
ATOM      4  C   UNL     1      -4.195   7.941   2.920  0.00  0.00    +0.000 A 
ATOM      5  C   UNL     1      -4.701   8.830   4.044  0.00  0.00    +0.000 C 
ATOM      6  C   UNL     1      -4.543   8.238   1.554  0.00  0.00    +0.000 A 
ATOM      7  C   UNL     1      -1.579   3.978   1.391  0.00  0.00    +0.000 A 
ENDROOT
BRANCH   1   9
ATOM      8  N   UNL     1      -0.846   3.343   4.203  0.00  0.00    +0.000 N 
ATOM      9  C   UNL     1      -1.691   4.506   3.897  0.00  0.00    +0.000 C 
ATOM     10  O   UNL     1      -2.115   5.249   4.837  0.00  0.00    +0.000 OA
ATOM     11  H   UNL     1      -0.600   3.133   5.171  0.00  0.00    +0.000 HD
BRANCH   8  14
ATOM     12  C   UNL     1       0.952   0.502   2.352  0.00  0.00    +0.000 A 
ATOM     13  C   UNL     1       0.472   1.344   3.417  0.00  0.00    +0.000 A 
ATOM     14  C   UNL     1      -0.356   2.484   3.116  0.00  0.00    +0.000 A 
ATOM     15  C   UNL     1      -0.704   2.781   1.751  0.00  0.00    +0.000 A 
ATOM     16  C   UNL     1      -0.224   1.939   0.686  0.00  0.00    +0.000 A 
ATOM     17  C   UNL     1       1.780  -0.638   2.652  0.00  0.00    +0.000 A 
BRANCH  12  19
ATOM     18  C   UNL     1       1.082  -0.035  -0.045  0.00  0.00    +0.000 C 
ATOM     19  O   UNL     1       0.609   0.795   1.005  0.00  0.00    +0.000 OA
ENDBRANCH  12  19
BRANCH  16  20
ATOM     20  O   UNL     1       0.592   0.815   0.982  0.00  0.00    +0.000 OA
ATOM     21  C   UNL     1       1.066  -0.015  -0.068  0.00  0.00    +0.000 C 
ENDBRANCH  16  20
ENDBRANCH   8  14
ENDBRANCH   1   9
BRANCH   6  22
ATOM     22  C   UNL     1      -5.416   9.441   1.237  0.00  0.00    +0.000 C 
ATOM     23  C   UNL     1      -6.166  10.472   0.965  0.00  0.00    +0.000 C 
BRANCH  23  24
ATOM     24  C   UNL     1      -7.040  11.675   0.648  0.00  0.00    +0.000 A 
ATOM     25  C   UNL     1      -7.288  12.671   1.658  0.00  0.00    +0.000 A 
ATOM     26  N   UNL     1      -6.727  12.533   2.926  0.00  0.00    +0.000 NA
ATOM     27  C   UNL     1      -5.926  11.431   3.216  0.00  0.00    +0.000 A 
ATOM     28  C   UNL     1      -5.346  11.288   4.526  0.00  0.00    +0.000 A 
ATOM     29  C   UNL     1      -5.594  12.284   5.536  0.00  0.00    +0.000 A 
ATOM     30  C   UNL     1      -5.014  12.141   6.847  0.00  0.00    +0.000 A 
ATOM     31  N   UNL     1      -5.253  13.105   7.824  0.00  0.00    +0.000 NA
ATOM     32  N   UNL     1      -5.686  10.467   2.239  0.00  0.00    +0.000 N 
ENDBRANCH  23  24
ENDBRANCH   6  22
TORSDOF 6
