REMARK  Name = 
REMARK  6 active torsions:
REMARK  status: ('A' for Active; 'I' for Inactive)
REMARK    1  A    between atoms: C_1  and  C_2
REMARK    2  A    between atoms: C_5  and  C_6
REMARK    3  A    between atoms: N_8  and  N_9
REMARK    4  A    between atoms: N_9  and  C_10
REMARK    5  A    between atoms: C_10  and  N_12
REMARK    6  A    between atoms: C_13  and  C_15
REMARK                            x       y       z     vdW  Elec       q    Type
REMARK                         _______ _______ _______ _____ _____    ______ ____
ROOT
ATOM      1  N   UNL     1       3.056  -3.347  -0.397  0.00  0.00    +0.000 N 
ATOM      2  H   UNL     1       2.469  -2.634   0.037  0.00  0.00    +0.000 HD
ENDROOT
BRANCH   1   5
ATOM      3  C   UNL     1       2.909  -4.708   1.698  0.00  0.00    +0.000 C 
ATOM      4  O   UNL     1       3.216  -5.759   2.345  0.00  0.00    +0.000 OA
ATOM      5  N   UNL     1       3.399  -4.521   0.325  0.00  0.00    +0.000 N 
ATOM      6  H   UNL     1       3.985  -5.233  -0.109  0.00  0.00    +0.000 HD
BRANCH   3  11
ATOM      7  C   UNL     1       1.018  -0.065   0.074  0.00  0.00    +0.000 C 
ATOM      8  C   UNL     1       0.511  -0.259   1.494  0.00  0.00    +0.000 A 
ATOM      9  C   UNL     1       0.859  -1.449   2.226  0.00  0.00    +0.000 A 
ATOM     10  C   UNL     1       1.687  -2.456   1.613  0.00  0.00    +0.000 A 
ATOM     11  C   UNL     1       2.035  -3.646   2.345  0.00  0.00    +0.000 A 
ATOM     12  C   UNL     1       1.555  -3.830   3.691  0.00  0.00    +0.000 A 
ATOM     13  C   UNL     1      -0.317   0.747   2.107  0.00  0.00    +0.000 A 
ENDBRANCH   3  11
ENDBRANCH   1   5
BRANCH   1  14
ATOM     14  C   UNL     1       3.546  -3.159  -1.770  0.00  0.00    +0.000 C 
ATOM     15  S   UNL     1       3.155  -1.821  -2.594  0.00  0.00    +0.000 S 
BRANCH  14  16
ATOM     16  N   UNL     1       4.391  -4.187  -2.396  0.00  0.00    +0.000 N 
ATOM     17  C   UNL     1       4.746  -5.402  -1.648  0.00  0.00    +0.000 C 
ATOM     18  O   UNL     1       5.477  -6.290  -2.189  0.00  0.00    +0.000 OA
ATOM     19  H   UNL     1       4.731  -4.056  -3.348  0.00  0.00    +0.000 HD
BRANCH  17  20
ATOM     20  C   UNL     1       4.239  -5.596  -0.228  0.00  0.00    +0.000 A 
ATOM     21  C   UNL     1       4.587  -6.786   0.504  0.00  0.00    +0.000 A 
ATOM     22  C   UNL     1       5.415  -7.792  -0.109  0.00  0.00    +0.000 A 
ATOM     23  C   UNL     1       5.763  -8.983   0.623  0.00  0.00    +0.000 A 
ATOM     24  O   UNL     1       3.466  -4.655   0.344  0.00  0.00    +0.000 OA
ENDBRANCH  17  20
ENDBRANCH  14  16
ENDBRANCH   1  14
TORSDOF 5
