REMARK  Name = 
REMARK  9 active torsions:
REMARK  status: ('A' for Active; 'I' for Inactive)
REMARK    1  A    between atoms: C_1  and  C_2
REMARK    2  A    between atoms: C_2  and  C_3
REMARK    3  A    between atoms: C_2  and  C_4
REMARK    4  A    between atoms: C_4  and  S_5
REMARK    5  A    between atoms: S_5  and  C_8
REMARK    6  A    between atoms: C_14  and  C_15
REMARK    7  A    between atoms: C_18  and  O_19
REMARK    8  A    between atoms: O_19  and  C_20
REMARK    9  A    between atoms: C_20  and  C_22
REMARK                            x       y       z     vdW  Elec       q    Type
REMARK                         _______ _______ _______ _____ _____    ______ ____
ROOT
ATOM      1  C   UNL     1      -1.107  -1.605   0.928  0.00  0.00    +0.000 C 
ATOM      2  N   UNL     1      -1.425  -2.712   1.563  0.00  0.00    +0.000 NA
ATOM      3  N   UNL     1      -0.952  -3.964   1.088  0.00  0.00    +0.000 N 
ATOM      4  C   UNL     1      -1.307  -5.201   1.797  0.00  0.00    +0.000 C 
ATOM      5  N   UNL     1      -2.063  -5.149   2.872  0.00  0.00    +0.000 NA
ATOM      6  C   UNL     1      -0.800  -6.541   1.288  0.00  0.00    +0.000 C 
ATOM      7  C   UNL     1      -0.018  -6.595   0.176  0.00  0.00    +0.000 C 
ATOM      8  C   UNL     1      -1.167  -7.821   2.022  0.00  0.00    +0.000 C 
ATOM      9  O   UNL     1      -1.898  -7.771   3.060  0.00  0.00    +0.000 OA
ATOM     10  N   UNL     1      -0.677  -9.116   1.529  0.00  0.00    +0.000 NA
ATOM     11  C   UNL     1      -0.106  -4.022  -0.114  0.00  0.00    +0.000 C 
ATOM     12  S   UNL     1      -0.067  -1.676  -0.551  0.00  0.00    +0.000 S 
ATOM     13  H   UNL     1      -2.403  -4.250   3.214  0.00  0.00    +0.000 HD
ENDROOT
BRANCH   7  14
ATOM     14  C   UNL     1       0.349  -5.315  -0.557  0.00  0.00    +0.000 A 
ATOM     15  C   UNL     1      -0.131  -4.046  -0.075  0.00  0.00    +0.000 A 
ATOM     16  C   UNL     1      -0.959  -3.989   1.102  0.00  0.00    +0.000 A 
ATOM     17  C   UNL     1      -1.439  -2.719   1.584  0.00  0.00    +0.000 A 
ATOM     18  C   UNL     1      -1.091  -1.507   0.889  0.00  0.00    +0.000 A 
ATOM     19  C   UNL     1       1.177  -5.372  -1.734  0.00  0.00    +0.000 A 
BRANCH  17  20
ATOM     20  O   UNL     1      -2.255  -2.663   2.745  0.00  0.00    +0.000 OA
BRANCH  20  21
ATOM     21  C   UNL     1      -2.598  -3.859   3.430  0.00  0.00    +0.000 C 
ATOM     22  O   UNL     1      -2.175  -4.979   3.004  0.00  0.00    +0.000 OA
BRANCH  21  23
ATOM     23  C   UNL     1      -3.472  -3.799   4.672  0.00  0.00    +0.000 A 
ATOM     24  C   UNL     1      -3.820  -5.012   5.367  0.00  0.00    +0.000 A 
ATOM     25  C   UNL     1      -3.340  -6.281   4.885  0.00  0.00    +0.000 A 
ATOM     26  C   UNL     1      -3.688  -7.494   5.580  0.00  0.00    +0.000 A 
ATOM     27  O   UNL     1      -3.921  -2.613   5.123  0.00  0.00    +0.000 OA
ENDBRANCH  21  23
ENDBRANCH  20  21
ENDBRANCH  17  20
ENDBRANCH   7  14
BRANCH   1  28
ATOM     28  S   UNL     1      -1.710  -0.009   1.534  0.00  0.00    +0.000 S 
ATOM     29  O   UNL     1      -1.200   0.222   2.959  0.00  0.00    +0.000 OA
ATOM     30  O   UNL     1      -3.241  -0.009   1.534  0.00  0.00    +0.000 OA
BRANCH  28  31
ATOM     31  C   UNL     1      -1.107   1.313   0.456  0.00  0.00    +0.000 C 
BRANCH  31  33
ATOM     32  C   UNL     1       0.920  -0.027  -0.053  0.00  0.00    +0.000 C 
ATOM     33  C   UNL     1       0.413   1.313   0.456  0.00  0.00    +0.000 C 
ATOM     34  C   UNL     1       0.920   2.424  -0.450  0.00  0.00    +0.000 C 
ENDBRANCH  31  33
ENDBRANCH  28  31
ENDBRANCH   1  28
TORSDOF 7
