REMARK  Name = 
REMARK  4 active torsions:
REMARK  status: ('A' for Active; 'I' for Inactive)
REMARK    1  A    between atoms: C_1  and  O_2
REMARK    2  A    between atoms: O_2  and  C_3
REMARK    3  A    between atoms: C_6  and  C_7
REMARK    4  A    between atoms: C_10  and  C_11
REMARK                            x       y       z     vdW  Elec       q    Type
REMARK                         _______ _______ _______ _____ _____    ______ ____
ROOT
ATOM      1  C   UNL     1      -1.874  -5.810   1.321  0.00  0.00    +0.000 C 
ATOM      2  C   UNL     1      -2.328  -7.093   1.353  0.00  0.00    +0.000 C 
ATOM      3  S   UNL     1      -1.890  -8.241   0.025  0.00  0.00    +0.000 S 
ATOM      4  C   UNL     1      -2.640  -9.856   0.353  0.00  0.00    +0.000 C 
ATOM      5  N   UNL     1      -2.453 -10.851  -0.488  0.00  0.00    +0.000 NA
ATOM      6  C   UNL     1      -3.202  -7.561   2.506  0.00  0.00    +0.000 C 
ATOM      7  O   UNL     1      -3.509  -6.754   3.439  0.00  0.00    +0.000 OA
ENDROOT
BRANCH   4   8
ATOM      8  C   UNL     1      -3.484 -10.063   1.599  0.00  0.00    +0.000 A 
ATOM      9  C   UNL     1      -3.688  -8.975   2.520  0.00  0.00    +0.000 A 
ATOM     10  C   UNL     1      -3.092  -7.690   2.259  0.00  0.00    +0.000 A 
ATOM     11  C   UNL     1      -3.296  -6.601   3.180  0.00  0.00    +0.000 A 
ATOM     12  F   UNL     1      -2.746  -5.415   2.939  0.00  0.00    +0.000 F 
ATOM     13  C   UNL     1      -4.096  -6.797   4.361  0.00  0.00    +0.000 A 
ATOM     14  C   UNL     1      -4.080 -11.348   1.860  0.00  0.00    +0.000 A 
ENDBRANCH   4   8
BRANCH   1  18
ATOM     15  C   UNL     1       0.788  -2.184  -0.993  0.00  0.00    +0.000 A 
ATOM     16  C   UNL     1       0.308  -3.542  -0.958  0.00  0.00    +0.000 A 
ATOM     17  C   UNL     1      -0.520  -3.985   0.134  0.00  0.00    +0.000 A 
ATOM     18  C   UNL     1      -1.000  -5.343   0.168  0.00  0.00    +0.000 A 
ATOM     19  C   UNL     1      -0.652  -6.257  -0.889  0.00  0.00    +0.000 A 
ATOM     20  C   UNL     1       1.616  -1.741  -2.085  0.00  0.00    +0.000 A 
BRANCH  15  22
ATOM     21  C   UNL     1       0.918   0.055   0.015  0.00  0.00    +0.000 C 
ATOM     22  O   UNL     1       0.445  -1.283   0.050  0.00  0.00    +0.000 OA
ENDBRANCH  15  22
ENDBRANCH   1  18
TORSDOF 3
