REMARK  Name = 
REMARK  13 active torsions:
REMARK  status: ('A' for Active; 'I' for Inactive)
REMARK    1  A    between atoms: C_1  and  C_2
REMARK    2  A    between atoms: C_2  and  C_3
REMARK    3  A    between atoms: C_2  and  C_4
REMARK    4  A    between atoms: C_4  and  C_5
REMARK    5  A    between atoms: C_8  and  C_9
REMARK    6  A    between atoms: C_9  and  C_10
REMARK    7  A    between atoms: C_9  and  C_11
REMARK    8  A    between atoms: N_13  and  C_14
REMARK    9  A    between atoms: C_14  and  C_15
REMARK   10  A    between atoms: C_15  and  O_16
REMARK   11  A    between atoms: O_16  and  C_17
REMARK   12  A    between atoms: C_20  and  S_21
REMARK   13  A    between atoms: S_21  and  N_22
REMARK                            x       y       z     vdW  Elec       q    Type
REMARK                         _______ _______ _______ _____ _____    ______ ____
ROOT
ATOM      1  C   UNL     1       0.030   4.362  -1.689  0.00  0.00    +0.000 C 
ATOM      2  O   UNL     1      -0.200   5.079  -0.665  0.00  0.00    +0.000 OA
ATOM      3  N   UNL     1      -0.438   4.797  -3.012  0.00  0.00    +0.000 N 
ATOM      4  H   UNL     1      -0.948   5.676  -3.109  0.00  0.00    +0.000 HD
ENDROOT
BRANCH   1   5
ATOM      5  C   UNL     1       0.790   3.053  -1.545  0.00  0.00    +0.000 C 
ATOM      6  C   UNL     1       2.057   3.108  -2.383  0.00  0.00    +0.000 C 
BRANCH   5  10
ATOM      7  C   UNL     1      -1.607  -1.312  -0.661  0.00  0.00    +0.000 A 
ATOM      8  C   UNL     1      -1.259  -0.248  -1.567  0.00  0.00    +0.000 A 
ATOM      9  C   UNL     1      -0.431   0.840  -1.115  0.00  0.00    +0.000 A 
ATOM     10  C   UNL     1      -0.084   1.905  -2.021  0.00  0.00    +0.000 A 
ATOM     11  C   UNL     1      -0.564   1.880  -3.379  0.00  0.00    +0.000 A 
ATOM     12  C   UNL     1      -2.435  -2.400  -1.112  0.00  0.00    +0.000 A 
BRANCH   7  13
ATOM     13  C   UNL     1      -1.101  -1.286   0.772  0.00  0.00    +0.000 C 
BRANCH  13  15
ATOM     14  C   UNL     1       0.926  -0.058   0.033  0.00  0.00    +0.000 C 
ATOM     15  C   UNL     1       0.419  -1.286   0.772  0.00  0.00    +0.000 C 
ATOM     16  C   UNL     1       0.926  -1.261   2.205  0.00  0.00    +0.000 C 
ENDBRANCH  13  15
ENDBRANCH   7  13
ENDBRANCH   5  10
ENDBRANCH   1   5
BRANCH   3  17
ATOM     17  C   UNL     1      -0.172   3.968  -4.196  0.00  0.00    +0.000 C 
BRANCH  17  18
ATOM     18  C   UNL     1      -1.489   3.559  -4.835  0.00  0.00    +0.000 C 
BRANCH  18  19
ATOM     19  O   UNL     1      -2.208   4.721  -5.223  0.00  0.00    +0.000 OA
BRANCH  19  20
ATOM     20  C   UNL     1      -2.583   5.682  -4.248  0.00  0.00    +0.000 A 
ATOM     21  C   UNL     1      -3.312   6.860  -4.641  0.00  0.00    +0.000 A 
ATOM     22  C   UNL     1      -3.660   7.063  -6.024  0.00  0.00    +0.000 A 
ATOM     23  C   UNL     1      -4.389   8.241  -6.417  0.00  0.00    +0.000 A 
ATOM     24  C   UNL     1      -4.770   9.216  -5.428  0.00  0.00    +0.000 A 
ATOM     25  C   UNL     1      -2.236   5.479  -2.865  0.00  0.00    +0.000 A 
BRANCH  23  26
ATOM     26  S   UNL     1      -4.826   8.497  -8.155  0.00  0.00    +0.000 S 
ATOM     27  O   UNL     1      -4.193   9.797  -8.655  0.00  0.00    +0.000 OA
ATOM     28  O   UNL     1      -4.308   7.323  -8.989  0.00  0.00    +0.000 OA
BRANCH  26  29
ATOM     29  N   UNL     1      -6.577   8.599  -8.311  0.00  0.00    +0.000 NA
ATOM     30  H   UNL     1      -6.823   8.743  -9.290  0.00  0.00    +0.000 HD
ATOM     31  H   UNL     1      -6.999   7.732  -7.978  0.00  0.00    +0.000 HD
ENDBRANCH  26  29
ENDBRANCH  23  26
ENDBRANCH  19  20
ENDBRANCH  18  19
ENDBRANCH  17  18
ENDBRANCH   3  17
TORSDOF 10
