REMARK  Name = 
REMARK  6 active torsions:
REMARK  status: ('A' for Active; 'I' for Inactive)
REMARK    1  A    between atoms: C_1  and  C_2
REMARK    2  A    between atoms: C_2  and  C_4
REMARK    3  A    between atoms: C_7  and  N_8
REMARK    4  A    between atoms: N_11  and  C_12
REMARK    5  A    between atoms: C_15  and  N_16
REMARK    6  A    between atoms: C_20  and  C_21
REMARK                            x       y       z     vdW  Elec       q    Type
REMARK                         _______ _______ _______ _____ _____    ______ ____
ROOT
ATOM      1  N   UNL     1      -1.834   5.352   3.129  0.00  0.00    +0.000 N 
ATOM      2  C   UNL     1      -2.324   6.416   4.016  0.00  0.00    +0.000 C 
ATOM      3  O   UNL     1      -3.054   7.346   3.551  0.00  0.00    +0.000 OA
ATOM      4  N   UNL     1      -1.969   6.405   5.443  0.00  0.00    +0.000 N 
ATOM      5  H   UNL     1      -2.080   5.359   2.139  0.00  0.00    +0.000 HD
ATOM      6  H   UNL     1      -2.309   7.143   6.059  0.00  0.00    +0.000 HD
ENDROOT
BRANCH   4   7
ATOM      7  C   UNL     1      -1.124   5.329   5.982  0.00  0.00    +0.000 A 
ATOM      8  C   UNL     1      -0.643   4.287   5.112  0.00  0.00    +0.000 A 
ATOM      9  C   UNL     1      -0.991   4.298   3.714  0.00  0.00    +0.000 A 
ATOM     10  C   UNL     1      -0.511   3.255   2.845  0.00  0.00    +0.000 A 
ATOM     11  C   UNL     1       0.317   2.201   3.372  0.00  0.00    +0.000 A 
ATOM     12  C   UNL     1      -0.776   5.319   7.379  0.00  0.00    +0.000 A 
ATOM     13  C   UNL     1      -1.282   6.419   8.297  0.00  0.00    +0.000 C 
BRANCH  10  14
ATOM     14  N   UNL     1      -0.866   3.266   1.418  0.00  0.00    +0.000 N 
ATOM     15  O   UNL     1      -0.458   2.378   0.678  0.00  0.00    +0.000 OA
ATOM     16  O   UNL     1      -1.654   4.268   0.916  0.00  0.00    +0.000 OA
ENDBRANCH  10  14
ENDBRANCH   4   7
BRANCH   1  20
ATOM     17  C   UNL     1       0.800   1.137   2.456  0.00  0.00    +0.000 A 
ATOM     18  C   UNL     1       0.319   2.180   3.326  0.00  0.00    +0.000 A 
ATOM     19  C   UNL     1      -0.509   3.233   2.798  0.00  0.00    +0.000 A 
ATOM     20  C   UNL     1      -0.989   4.276   3.667  0.00  0.00    +0.000 A 
ATOM     21  C   UNL     1      -0.641   4.265   5.065  0.00  0.00    +0.000 A 
ATOM     22  C   UNL     1       1.628   0.083   2.984  0.00  0.00    +0.000 A 
BRANCH  17  24
ATOM     23  C   UNL     1       0.939   0.048   0.063  0.00  0.00    +0.000 C 
ATOM     24  C   UNL     1       0.432   1.148   0.981  0.00  0.00    +0.000 C 
ATOM     25  O   UNL     1      -0.298   2.078   0.515  0.00  0.00    +0.000 OA
ENDBRANCH  17  24
ENDBRANCH   1  20
TORSDOF 4
