REMARK  Name = 
REMARK  5 active torsions:
REMARK  status: ('A' for Active; 'I' for Inactive)
REMARK    1  A    between atoms: C_2  and  C_15
REMARK    2  A    between atoms: N_3  and  C_4
REMARK    3  A    between atoms: N_7  and  C_8
REMARK    4  A    between atoms: C_8  and  C_9
REMARK    5  A    between atoms: C_18  and  C_19
REMARK                            x       y       z     vdW  Elec       q    Type
REMARK                         _______ _______ _______ _____ _____    ______ ____
ROOT
ATOM      1  O   UNL     1       0.930  -0.038   0.061  0.00  0.00    +0.000 OA
ATOM      2  C   UNL     1       2.201  -0.038   0.061  0.00  0.00    +0.000 C 
ATOM      3  N   UNL     1       2.936   0.056  -1.209  0.00  0.00    +0.000 N 
ATOM      4  H   UNL     1       2.426   0.122  -2.090  0.00  0.00    +0.000 HD
ENDROOT
BRANCH   3   5
ATOM      5  C   UNL     1       4.406   0.056  -1.209  0.00  0.00    +0.000 C 
ATOM      6  C   UNL     1       4.913   1.347  -1.831  0.00  0.00    +0.000 C 
ATOM      7  C   UNL     1       4.406   2.532  -1.025  0.00  0.00    +0.000 C 
ATOM      8  N   UNL     1       4.896   2.429   0.357  0.00  0.00    +0.000 NA
ATOM      9  C   UNL     1       4.406   1.180   0.959  0.00  0.00    +0.000 C 
ATOM     10  C   UNL     1       4.913  -1.128  -2.016  0.00  0.00    +0.000 C 
BRANCH   8  11
ATOM     11  C   UNL     1       4.406   3.574   1.138  0.00  0.00    +0.000 C 
BRANCH  11  12
ATOM     12  C   UNL     1       2.886   3.574   1.138  0.00  0.00    +0.000 C 
ATOM     13  F   UNL     1       2.443   2.445   1.682  0.00  0.00    +0.000 F 
ATOM     14  F   UNL     1       2.443   4.611   1.844  0.00  0.00    +0.000 F 
ATOM     15  F   UNL     1       2.443   3.667  -0.113  0.00  0.00    +0.000 F 
ENDBRANCH  11  12
ENDBRANCH   8  11
ENDBRANCH   3   5
BRANCH   2  16
ATOM     16  C   UNL     1       2.961  -0.136   1.373  0.00  0.00    +0.000 A 
ATOM     17  C   UNL     1       4.401  -0.136   1.373  0.00  0.00    +0.000 A 
ATOM     18  C   UNL     1       5.121  -0.043   0.130  0.00  0.00    +0.000 A 
ATOM     19  C   UNL     1       6.562  -0.043   0.130  0.00  0.00    +0.000 A 
ATOM     20  N   UNL     1       7.258  -0.133   1.332  0.00  0.00    +0.000 NA
ATOM     21  C   UNL     1       2.241  -0.228   2.617  0.00  0.00    +0.000 A 
BRANCH  19  22
ATOM     22  C   UNL     1       7.322   0.055  -1.183  0.00  0.00    +0.000 A 
ATOM     23  C   UNL     1       6.601   0.147  -2.427  0.00  0.00    +0.000 A 
ATOM     24  C   UNL     1       5.161   0.147  -2.427  0.00  0.00    +0.000 A 
ATOM     25  C   UNL     1       4.441   0.240  -3.671  0.00  0.00    +0.000 A 
ATOM     26  C   UNL     1       3.001   0.240  -3.671  0.00  0.00    +0.000 A 
ATOM     27  O   UNL     1       2.365   0.158  -2.573  0.00  0.00    +0.000 OA
ATOM     28  N   UNL     1       8.714   0.055  -1.183  0.00  0.00    +0.000 N 
ATOM     29  H   UNL     1       9.224  -0.011  -0.302  0.00  0.00    +0.000 HD
ENDBRANCH  19  22
ENDBRANCH   2  16
TORSDOF 5
