REMARK  Name = 
REMARK  5 active torsions:
REMARK  status: ('A' for Active; 'I' for Inactive)
REMARK    1  A    between atoms: N_1  and  C_2
REMARK    2  A    between atoms: C_3  and  C_4
REMARK    3  A    between atoms: N_6  and  C_7
REMARK    4  A    between atoms: C_15  and  C_16
REMARK    5  A    between atoms: C_25  and  C_26
REMARK                            x       y       z     vdW  Elec       q    Type
REMARK                         _______ _______ _______ _____ _____    ______ ____
ROOT
ATOM      1  C   UNL     1       0.245  -1.022  -0.700  0.00  0.00    +0.000 A 
ATOM      2  C   UNL     1       0.965  -2.100  -1.327  0.00  0.00    +0.000 A 
ATOM      3  S   UNL     1       0.108  -3.384  -2.074  0.00  0.00    +0.000 S 
ATOM      4  C   UNL     1       0.965  -4.668  -2.821  0.00  0.00    +0.000 A 
ATOM      5  N   UNL     1       0.269  -5.710  -3.428  0.00  0.00    +0.000 NA
ATOM      6  C   UNL     1       0.965  -6.753  -4.034  0.00  0.00    +0.000 A 
ATOM      7  C   UNL     1       0.245  -7.831  -4.662  0.00  0.00    +0.000 A 
ATOM      8  C   UNL     1      -1.195  -7.831  -4.662  0.00  0.00    +0.000 A 
ATOM      9  C   UNL     1       2.405  -4.668  -2.821  0.00  0.00    +0.000 A 
ATOM     10  C   UNL     1       1.005  -8.968  -5.324  0.00  0.00    +0.000 C 
ATOM     11  C   UNL     1       1.879  -8.414  -6.437  0.00  0.00    +0.000 C 
ATOM     12  C   UNL     1       2.485  -6.753  -4.034  0.00  0.00    +0.000 C 
ATOM     13  C   UNL     1       3.165  -5.734  -3.442  0.00  0.00    +0.000 C 
ENDROOT
BRANCH   8  14
ATOM     14  C   UNL     1      -1.955  -6.693  -4.000  0.00  0.00    +0.000 A 
ATOM     15  C   UNL     1      -3.395  -6.693  -4.000  0.00  0.00    +0.000 A 
ATOM     16  C   UNL     1      -4.116  -7.771  -4.627  0.00  0.00    +0.000 A 
ATOM     17  C   UNL     1      -5.556  -7.771  -4.627  0.00  0.00    +0.000 A 
ATOM     18  O   UNL     1      -1.282  -5.686  -3.414  0.00  0.00    +0.000 OA
ENDBRANCH   8  14
BRANCH  13  19
ATOM     19  C   UNL     1       2.405  -4.597  -2.780  0.00  0.00    +0.000 A 
ATOM     20  C   UNL     1       0.965  -4.597  -2.780  0.00  0.00    +0.000 A 
ATOM     21  C   UNL     1       0.245  -5.675  -3.407  0.00  0.00    +0.000 A 
ATOM     22  C   UNL     1      -1.195  -5.675  -3.407  0.00  0.00    +0.000 A 
ATOM     23  O   UNL     1       3.078  -3.590  -2.194  0.00  0.00    +0.000 OA
ENDBRANCH  13  19
BRANCH   2  24
ATOM     24  C   UNL     1       2.485  -2.100  -1.327  0.00  0.00    +0.000 C 
ATOM     25  O   UNL     1       3.121  -3.052  -1.880  0.00  0.00    +0.000 OA
ATOM     26  N   UNL     1       3.220  -1.000  -0.687  0.00  0.00    +0.000 N 
ATOM     27  H   UNL     1       4.240  -1.000  -0.687  0.00  0.00    +0.000 HD
BRANCH  26  28
ATOM     28  C   UNL     1       2.485   0.100  -0.046  0.00  0.00    +0.000 C 
ATOM     29  C   UNL     1       2.852   1.413  -0.718  0.00  0.00    +0.000 C 
ATOM     30  C   UNL     1       2.852   0.165   1.427  0.00  0.00    +0.000 C 
ENDBRANCH  26  28
ENDBRANCH   2  24
BRANCH   1  31
ATOM     31  N   UNL     1       0.980   0.078  -0.059  0.00  0.00    +0.000 N 
ATOM     32  H   UNL     1       0.470   0.842   0.385  0.00  0.00    +0.000 HD
ATOM     33  H   UNL     1       2.000   0.078  -0.059  0.00  0.00    +0.000 HD
ENDBRANCH   1  31
TORSDOF 5
