REMARK  Name = 
REMARK  7 active torsions:
REMARK  status: ('A' for Active; 'I' for Inactive)
REMARK    1  A    between atoms: C_1  and  O_2
REMARK    2  A    between atoms: O_2  and  C_3
REMARK    3  A    between atoms: C_5  and  C_6
REMARK    4  A    between atoms: N_11  and  C_12
REMARK    5  A    between atoms: C_22  and  O_23
REMARK    6  A    between atoms: O_23  and  C_24
REMARK    7  A    between atoms: C_25  and  O_26
REMARK                            x       y       z     vdW  Elec       q    Type
REMARK                         _______ _______ _______ _____ _____    ______ ____
ROOT
ATOM      1  C   UNL     1      -0.906  -4.270  -3.477  0.00  0.00    +0.000 C 
ATOM      2  C   UNL     1      -1.688  -5.268  -2.985  0.00  0.00    +0.000 C 
ATOM      3  C   UNL     1      -2.194  -6.362  -3.910  0.00  0.00    +0.000 C 
ATOM      4  O   UNL     1      -1.887  -6.344  -5.143  0.00  0.00    +0.000 OA
ATOM      5  N   UNL     1      -3.040  -7.441  -3.379  0.00  0.00    +0.000 N 
ATOM      6  N   UNL     1      -3.383  -7.461  -2.001  0.00  0.00    +0.000 N 
ATOM      7  C   UNL     1      -2.055  -5.290  -1.510  0.00  0.00    +0.000 C 
ATOM      8  O   UNL     1      -1.631  -4.375  -0.736  0.00  0.00    +0.000 OA
ATOM      9  H   UNL     1      -3.380  -8.176  -4.000  0.00  0.00    +0.000 HD
ENDROOT
BRANCH   6  10
ATOM     10  C   UNL     1      -2.893  -6.403  -1.106  0.00  0.00    +0.000 A 
ATOM     11  C   UNL     1      -3.241  -6.423   0.291  0.00  0.00    +0.000 A 
ATOM     12  C   UNL     1      -4.069  -7.481   0.812  0.00  0.00    +0.000 A 
ATOM     13  C   UNL     1      -4.417  -7.501   2.209  0.00  0.00    +0.000 A 
ATOM     14  C   UNL     1      -5.245  -8.558   2.730  0.00  0.00    +0.000 A 
ATOM     15 CL   UNL     1      -5.838  -9.839   1.646  0.00  0.00    +0.000 Cl
ATOM     16  C   UNL     1      -2.065  -5.346  -1.627  0.00  0.00    +0.000 A 
ENDBRANCH   6  10
BRANCH   1  19
ATOM     17  C   UNL     1       0.909  -1.081  -2.195  0.00  0.00    +0.000 A 
ATOM     18  C   UNL     1       0.429  -2.118  -3.072  0.00  0.00    +0.000 A 
ATOM     19  C   UNL     1      -0.399  -3.175  -2.551  0.00  0.00    +0.000 A 
ATOM     20  C   UNL     1      -0.747  -3.196  -1.154  0.00  0.00    +0.000 A 
ATOM     21  C   UNL     1      -0.267  -2.159  -0.277  0.00  0.00    +0.000 A 
ATOM     22  C   UNL     1       1.737  -0.024  -2.716  0.00  0.00    +0.000 A 
BRANCH  17  24
ATOM     23  C   UNL     1       1.039  -0.079   0.047  0.00  0.00    +0.000 C 
ATOM     24  O   UNL     1       0.566  -1.101  -0.817  0.00  0.00    +0.000 OA
ENDBRANCH  17  24
BRANCH  21  25
ATOM     25  O   UNL     1       0.549  -1.116  -0.791  0.00  0.00    +0.000 OA
ATOM     26  C   UNL     1       1.023  -0.094   0.074  0.00  0.00    +0.000 C 
ENDBRANCH  21  25
BRANCH  22  27
ATOM     27  O   UNL     1       2.210   0.998  -1.851  0.00  0.00    +0.000 OA
ATOM     28  H   UNL     1       2.785   1.732  -2.213  0.00  0.00    +0.000 HD
ENDBRANCH  22  27
ENDBRANCH   1  19
TORSDOF 5
