REMARK  Name = 
REMARK  5 active torsions:
REMARK  status: ('A' for Active; 'I' for Inactive)
REMARK    1  A    between atoms: N_1  and  C_2
REMARK    2  A    between atoms: C_2  and  C_3
REMARK    3  A    between atoms: C_2  and  C_22
REMARK    4  A    between atoms: N_10  and  C_11
REMARK    5  A    between atoms: C_15  and  C_16
REMARK                            x       y       z     vdW  Elec       q    Type
REMARK                         _______ _______ _______ _____ _____    ______ ____
ROOT
ATOM      1  C   UNL     1       1.041  -1.587   1.781  0.00  0.00    +0.000 A 
ATOM      2  C   UNL     1       2.457  -1.651   2.036  0.00  0.00    +0.000 A 
ATOM      3  S   UNL     1       3.571  -1.333   0.772  0.00  0.00    +0.000 S 
ATOM      4  C   UNL     1       3.000  -0.938  -0.796  0.00  0.00    +0.000 A 
ATOM      5  N   UNL     1       3.955  -0.665  -1.879  0.00  0.00    +0.000 N 
ATOM      6  C   UNL     1       5.400  -0.730  -1.619  0.00  0.00    +0.000 C 
ATOM      7  O   UNL     1       6.226  -0.494  -2.556  0.00  0.00    +0.000 OA
ATOM      8  N   UNL     1       5.890  -1.069  -0.275  0.00  0.00    +0.000 N 
ATOM      9  N   UNL     1       0.136  -1.846   2.807  0.00  0.00    +0.000 NA
ATOM     10  H   UNL     1       3.615  -0.430  -2.812  0.00  0.00    +0.000 HD
ATOM     11  H   UNL     1       6.893  -1.115  -0.094  0.00  0.00    +0.000 HD
ENDROOT
BRANCH   8  12
ATOM     12  C   UNL     1       4.935  -1.342   0.808  0.00  0.00    +0.000 A 
ATOM     13  C   UNL     1       3.519  -1.278   0.553  0.00  0.00    +0.000 A 
ATOM     14  C   UNL     1       3.039  -0.946  -0.763  0.00  0.00    +0.000 A 
ATOM     15  C   UNL     1       1.623  -0.882  -1.019  0.00  0.00    +0.000 A 
ATOM     16  C   UNL     1       1.143  -0.550  -2.335  0.00  0.00    +0.000 A 
ATOM     17  C   UNL     1       5.415  -1.674   2.125  0.00  0.00    +0.000 A 
BRANCH  16  18
ATOM     18  C   UNL     1       2.130  -0.268  -3.456  0.00  0.00    +0.000 C 
ATOM     19  F   UNL     1       2.895   0.768  -3.122  0.00  0.00    +0.000 F 
ATOM     20  F   UNL     1       2.895  -1.338  -3.653  0.00  0.00    +0.000 F 
ATOM     21  F   UNL     1       1.465   0.014  -4.573  0.00  0.00    +0.000 F 
ENDBRANCH  16  18
ENDBRANCH   8  12
BRANCH   1  22
ATOM     22  C   UNL     1       0.534  -1.237   0.391  0.00  0.00    +0.000 C 
BRANCH  22  23
ATOM     23  C   UNL     1      -0.986  -1.237   0.391  0.00  0.00    +0.000 C 
ATOM     24  C   UNL     1      -1.493  -2.615   0.783  0.00  0.00    +0.000 C 
ATOM     25  C   UNL     1      -0.986  -2.966   2.172  0.00  0.00    +0.000 C 
ATOM     26  C   UNL     1      -1.493  -1.937   3.170  0.00  0.00    +0.000 C 
ATOM     27  C   UNL     1      -3.013  -1.937   3.170  0.00  0.00    +0.000 C 
ATOM     28  C   UNL     1      -1.493  -0.887  -0.999  0.00  0.00    +0.000 C 
ENDBRANCH  22  23
BRANCH  22  29
ATOM     29  N   UNL     1       1.024   0.096   0.012  0.00  0.00    +0.000 NA
ATOM     30  H   UNL     1       0.684   0.786   0.682  0.00  0.00    +0.000 HD
ATOM     31  H   UNL     1       2.044   0.096   0.012  0.00  0.00    +0.000 HD
ENDBRANCH  22  29
ENDBRANCH   1  22
TORSDOF 5
