REMARK  Name = 
REMARK  10 active torsions:
REMARK  status: ('A' for Active; 'I' for Inactive)
REMARK    1  A    between atoms: C_1  and  C_2
REMARK    2  A    between atoms: C_2  and  C_4
REMARK    3  A    between atoms: C_8  and  N_9
REMARK    4  A    between atoms: C_10  and  C_12
REMARK    5  A    between atoms: C_12  and  O_13
REMARK    6  A    between atoms: O_13  and  C_14
REMARK    7  A    between atoms: C_14  and  C_16
REMARK    8  A    between atoms: C_19  and  S_20
REMARK    9  A    between atoms: S_20  and  C_21
REMARK   10  A    between atoms: C_24  and  N_25
REMARK                            x       y       z     vdW  Elec       q    Type
REMARK                         _______ _______ _______ _____ _____    ______ ____
ROOT
ATOM      1  O   UNL     1       0.496  -2.050   3.668  0.00  0.00    +0.000 OA
ENDROOT
BRANCH   1   2
ATOM      2  C   UNL     1       1.378  -1.253   4.445  0.00  0.00    +0.000 C 
ATOM      3  O   UNL     1       1.107  -0.030   4.657  0.00  0.00    +0.000 OA
BRANCH   2   4
ATOM      4  C   UNL     1       2.644  -1.863   5.023  0.00  0.00    +0.000 A 
ATOM      5  C   UNL     1       3.538  -1.055   5.811  0.00  0.00    +0.000 A 
ATOM      6  C   UNL     1       3.232   0.332   6.051  0.00  0.00    +0.000 A 
ATOM      7  C   UNL     1       4.126   1.141   6.839  0.00  0.00    +0.000 A 
ATOM      8  C   UNL     1       5.326   0.563   7.387  0.00  0.00    +0.000 A 
ATOM      9  C   UNL     1       2.950  -3.250   4.782  0.00  0.00    +0.000 A 
BRANCH   7  10
ATOM     10  S   UNL     1       3.742   2.883   7.142  0.00  0.00    +0.000 S 
ATOM     11  C   UNL     1       3.591   3.168   8.923  0.00  0.00    +0.000 C 
ATOM     12  O   UNL     1       4.864   3.759   6.578  0.00  0.00    +0.000 OA
ATOM     13  O   UNL     1       2.422   3.241   6.454  0.00  0.00    +0.000 OA
ENDBRANCH   7  10
BRANCH   8  14
ATOM     14  N   UNL     1       6.239   1.388   8.191  0.00  0.00    +0.000 N 
ATOM     15  O   UNL     1       5.978   2.568   8.396  0.00  0.00    +0.000 OA
ATOM     16  O   UNL     1       7.381   0.838   8.712  0.00  0.00    +0.000 OA
ENDBRANCH   8  14
ENDBRANCH   2   4
ENDBRANCH   1   2
BRANCH   1  17
ATOM     17  C   UNL     1      -0.687  -1.481   3.128  0.00  0.00    +0.000 C 
BRANCH  17  19
ATOM     18  N   UNL     1      -2.051  -1.886   5.292  0.00  0.00    +0.000 N 
ATOM     19  C   UNL     1      -1.561  -0.962   4.258  0.00  0.00    +0.000 C 
ATOM     20  O   UNL     1      -1.868   0.270   4.310  0.00  0.00    +0.000 OA
ATOM     21  H   UNL     1      -2.638  -1.538   6.050  0.00  0.00    +0.000 HD
BRANCH  18  26
ATOM     22  C   UNL     1       0.920  -2.484   1.065  0.00  0.00    +0.000 A 
ATOM     23  C   UNL     1       0.440  -3.389   2.077  0.00  0.00    +0.000 A 
ATOM     24  C   UNL     1      -0.388  -2.897   3.148  0.00  0.00    +0.000 A 
ATOM     25  C   UNL     1      -0.868  -3.802   4.161  0.00  0.00    +0.000 A 
ATOM     26  C   UNL     1      -1.696  -3.311   5.232  0.00  0.00    +0.000 A 
ATOM     27  C   UNL     1       1.748  -2.975  -0.006  0.00  0.00    +0.000 A 
BRANCH  22  29
ATOM     28  C   UNL     1       1.060  -0.055   0.059  0.00  0.00    +0.000 C 
ATOM     29  C   UNL     1       0.553  -1.010   1.127  0.00  0.00    +0.000 C 
ATOM     30  O   UNL     1      -0.178  -0.576   2.072  0.00  0.00    +0.000 OA
ENDBRANCH  22  29
ENDBRANCH  18  26
ENDBRANCH  17  19
ENDBRANCH   1  17
TORSDOF 8
