REMARK  Name = 
REMARK  13 active torsions:
REMARK  status: ('A' for Active; 'I' for Inactive)
REMARK    1  A    between atoms: C_1  and  C_2
REMARK    2  A    between atoms: C_4  and  C_5
REMARK    3  A    between atoms: C_7  and  C_8
REMARK    4  A    between atoms: N_10  and  C_11
REMARK    5  A    between atoms: N_15  and  C_16
REMARK    6  A    between atoms: C_16  and  C_17
REMARK    7  A    between atoms: C_17  and  N_18
REMARK    8  A    between atoms: N_18  and  C_19
REMARK    9  A    between atoms: N_18  and  C_20
REMARK   10  A    between atoms: C_24  and  C_25
REMARK   11  A    between atoms: C_25  and  C_26
REMARK   12  A    between atoms: C_25  and  C_27
REMARK   13  A    between atoms: C_25  and  O_28
REMARK                            x       y       z     vdW  Elec       q    Type
REMARK                         _______ _______ _______ _____ _____    ______ ____
ROOT
ATOM      1  C   UNL     1       2.868  -3.858  -3.143  0.00  0.00    +0.000 A 
ATOM      2  C   UNL     1       2.040  -3.839  -1.964  0.00  0.00    +0.000 A 
ATOM      3  C   UNL     1       1.560  -5.075  -1.402  0.00  0.00    +0.000 A 
ATOM      4  C   UNL     1       1.907  -6.329  -2.018  0.00  0.00    +0.000 A 
ATOM      5  N   UNL     1       2.708  -6.347  -3.158  0.00  0.00    +0.000 N 
ATOM      6  N   UNL     1       3.157  -5.193  -3.683  0.00  0.00    +0.000 NA
ATOM      7  C   UNL     1       0.732  -5.056  -0.224  0.00  0.00    +0.000 A 
ATOM      8  C   UNL     1       0.384  -3.802   0.392  0.00  0.00    +0.000 A 
ATOM      9  C   UNL     1       3.348  -2.622  -3.705  0.00  0.00    +0.000 A 
ENDROOT
BRANCH   1  12
ATOM     10  C   UNL     1       2.733  -6.399  -3.197  0.00  0.00    +0.000 C 
ATOM     11  O   UNL     1       3.040  -7.506  -3.741  0.00  0.00    +0.000 OA
ATOM     12  N   UNL     1       3.223  -5.138  -3.771  0.00  0.00    +0.000 N 
ATOM     13  H   UNL     1       3.809  -5.151  -4.606  0.00  0.00    +0.000 HD
BRANCH  10  16
ATOM     14  C   UNL     1       1.987  -3.971  -1.902  0.00  0.00    +0.000 A 
ATOM     15  N   UNL     1       1.522  -5.167  -1.358  0.00  0.00    +0.000 NA
ATOM     16  C   UNL     1       1.859  -6.380  -1.954  0.00  0.00    +0.000 A 
ATOM     17  C   UNL     1       1.379  -7.616  -1.392  0.00  0.00    +0.000 A 
ATOM     18  O   UNL     1       2.760  -3.989  -3.003  0.00  0.00    +0.000 OA
BRANCH  14  22
ATOM     19  C   UNL     1       0.950  -0.070  -0.051  0.00  0.00    +0.000 C 
ATOM     20  C   UNL     1       0.444  -1.374   0.542  0.00  0.00    +0.000 A 
ATOM     21  C   UNL     1       0.791  -2.629  -0.074  0.00  0.00    +0.000 A 
ATOM     22  C   UNL     1       1.619  -2.647  -1.252  0.00  0.00    +0.000 A 
ATOM     23  C   UNL     1       2.100  -1.411  -1.814  0.00  0.00    +0.000 A 
ATOM     24  C   UNL     1       1.752  -0.157  -1.198  0.00  0.00    +0.000 A 
ATOM     25  N   UNL     1      -0.357  -1.356   1.682  0.00  0.00    +0.000 NA
ENDBRANCH  14  22
ENDBRANCH  10  16
ENDBRANCH   1  12
BRANCH   9  26
ATOM     26  C   UNL     1       4.222  -2.641  -4.949  0.00  0.00    +0.000 C 
ATOM     27  C   UNL     1       5.488  -3.432  -4.665  0.00  0.00    +0.000 C 
ATOM     28  C   UNL     1       3.462  -3.294  -6.092  0.00  0.00    +0.000 C 
BRANCH  26  29
ATOM     29  O   UNL     1       4.565  -1.311  -5.307  0.00  0.00    +0.000 OA
ATOM     30  H   UNL     1       5.140  -1.324  -6.125  0.00  0.00    +0.000 HD
ENDBRANCH  26  29
ENDBRANCH   9  26
BRANCH   5  31
ATOM     31  C   UNL     1       3.063  -7.628  -3.786  0.00  0.00    +0.000 C 
BRANCH  31  32
ATOM     32  C   UNL     1       2.548  -7.650  -5.216  0.00  0.00    +0.000 C 
BRANCH  32  33
ATOM     33  N   UNL     1       3.157  -6.547  -5.974  0.00  0.00    +0.000 NA
ATOM     34  C   UNL     1       2.658  -6.569  -7.356  0.00  0.00    +0.000 C 
ATOM     35  C   UNL     1       2.801  -5.267  -5.345  0.00  0.00    +0.000 C 
ENDBRANCH  32  33
ENDBRANCH  31  32
ENDBRANCH   5  31
TORSDOF 8
