REMARK  Name = 
REMARK  7 active torsions:
REMARK  status: ('A' for Active; 'I' for Inactive)
REMARK    1  A    between atoms: C_1  and  O_2
REMARK    2  A    between atoms: O_2  and  C_3
REMARK    3  A    between atoms: C_15  and  C_16
REMARK    4  A    between atoms: C_19  and  O_20
REMARK    5  A    between atoms: C_21  and  O_22
REMARK    6  A    between atoms: C_24  and  C_25
REMARK    7  A    between atoms: C_25  and  O_26
REMARK                            x       y       z     vdW  Elec       q    Type
REMARK                         _______ _______ _______ _____ _____    ______ ____
ROOT
ATOM      1  C   UNL     1       0.928  -1.099  -2.130  0.00  0.00    +0.000 A 
ATOM      2  C   UNL     1       0.448  -2.165  -2.972  0.00  0.00    +0.000 A 
ATOM      3  C   UNL     1       0.796  -2.191  -4.369  0.00  0.00    +0.000 A 
ATOM      4  C   UNL     1       1.624  -1.151  -4.925  0.00  0.00    +0.000 A 
ATOM      5  C   UNL     1       1.972  -1.177  -6.322  0.00  0.00    +0.000 A 
ATOM      6  C   UNL     1       1.492  -2.242  -7.164  0.00  0.00    +0.000 A 
ATOM      7  C   UNL     1       0.664  -3.282  -6.609  0.00  0.00    +0.000 A 
ATOM      8  C   UNL     1       0.184  -4.347  -7.451  0.00  0.00    +0.000 A 
ATOM      9  O   UNL     1      -0.547  -5.264  -6.961  0.00  0.00    +0.000 OA
ATOM     10  O   UNL     1       0.509  -4.371  -8.756  0.00  0.00    +0.000 OA
ATOM     11  C   UNL     1       2.800  -0.138  -6.877  0.00  0.00    +0.000 A 
ATOM     12  O   UNL     1       0.322  -3.241  -5.199  0.00  0.00    +0.000 OA
ATOM     13  C   UNL     1       0.665  -3.266  -6.577  0.00  0.00    +0.000 C 
ATOM     14  C   UNL     1       2.177  -3.337  -6.722  0.00  0.00    +0.000 C 
ATOM     15  O   UNL     1      -0.369  -3.189  -2.424  0.00  0.00    +0.000 OA
ENDROOT
BRANCH  13  16
ATOM     16  C   UNL     1       0.036  -4.485  -7.233  0.00  0.00    +0.000 A 
ATOM     17  C   UNL     1      -1.394  -4.652  -7.231  0.00  0.00    +0.000 A 
ATOM     18  C   UNL     1      -2.234  -3.666  -6.603  0.00  0.00    +0.000 A 
ATOM     19  C   UNL     1      -3.664  -3.834  -6.601  0.00  0.00    +0.000 A 
ATOM     20  C   UNL     1      -4.255  -4.988  -7.227  0.00  0.00    +0.000 A 
ATOM     21  C   UNL     1       0.876  -5.471  -7.862  0.00  0.00    +0.000 A 
BRANCH  19  22
ATOM     22  O   UNL     1      -4.492  -2.861  -5.981  0.00  0.00    +0.000 OA
ATOM     23  H   UNL     1      -4.083  -2.059  -5.546  0.00  0.00    +0.000 HD
ENDBRANCH  19  22
BRANCH  20  24
ATOM     24  O   UNL     1      -5.665  -5.154  -7.225  0.00  0.00    +0.000 OA
ATOM     25  H   UNL     1      -6.075  -5.956  -7.660  0.00  0.00    +0.000 HD
ENDBRANCH  20  24
ENDBRANCH  13  16
BRANCH   1  27
ATOM     26  C   UNL     1       1.058  -0.023   0.078  0.00  0.00    +0.000 C 
ATOM     27  O   UNL     1       0.585  -1.074  -0.752  0.00  0.00    +0.000 OA
ENDBRANCH   1  27
BRANCH  14  28
ATOM     28  C   UNL     1       2.806  -2.119  -6.065  0.00  0.00    +0.000 C 
BRANCH  28  29
ATOM     29  O   UNL     1       4.103  -2.512  -6.489  0.00  0.00    +0.000 OA
ATOM     30  H   UNL     1       4.306  -3.426  -6.137  0.00  0.00    +0.000 HD
ENDBRANCH  28  29
ENDBRANCH  14  28
TORSDOF 6
