REMARK  Name = 
REMARK  3 active torsions:
REMARK  status: ('A' for Active; 'I' for Inactive)
REMARK    1  A    between atoms: C_1  and  O_2
REMARK    2  A    between atoms: O_2  and  C_3
REMARK    3  A    between atoms: C_4  and  C_5
REMARK                            x       y       z     vdW  Elec       q    Type
REMARK                         _______ _______ _______ _____ _____    ______ ____
ROOT
ATOM      1  C   UNL     1       0.966  -0.934  -2.242  0.00  0.00    +0.000 A 
ATOM      2  C   UNL     1       0.486  -1.947  -3.146  0.00  0.00    +0.000 A 
ATOM      3  O   UNL     1       0.811  -1.893  -4.451  0.00  0.00    +0.000 OA
ATOM      4  C   UNL     1       0.362  -2.839  -5.296  0.00  0.00    +0.000 A 
ATOM      5  C   UNL     1       0.710  -2.781  -6.692  0.00  0.00    +0.000 A 
ATOM      6  C   UNL     1       0.230  -3.794  -7.596  0.00  0.00    +0.000 A 
ATOM      7  C   UNL     1      -0.598  -4.865  -7.104  0.00  0.00    +0.000 A 
ATOM      8  C   UNL     1      -1.078  -5.878  -8.009  0.00  0.00    +0.000 A 
ATOM      9  O   UNL     1      -0.753  -5.824  -9.313  0.00  0.00    +0.000 OA
ATOM     10  C   UNL     1      -1.201  -6.770 -10.158  0.00  0.00    +0.000 A 
ATOM     11  C   UNL     1      -2.029  -7.841  -9.666  0.00  0.00    +0.000 A 
ATOM     12  C   UNL     1      -0.466  -3.910  -4.804  0.00  0.00    +0.000 A 
ATOM     13  C   UNL     1       1.794   0.137  -2.734  0.00  0.00    +0.000 A 
ATOM     14  O   UNL     1       2.217   1.030  -1.936  0.00  0.00    +0.000 OA
ENDROOT
BRANCH   2  15
ATOM     15  C   UNL     1      -0.388  -3.077  -2.627  0.00  0.00    +0.000 A 
ATOM     16  C   UNL     1      -0.736  -3.135  -1.231  0.00  0.00    +0.000 A 
ATOM     17  C   UNL     1      -0.256  -2.122  -0.326  0.00  0.00    +0.000 A 
ATOM     18  C   UNL     1      -0.604  -2.180   1.070  0.00  0.00    +0.000 A 
ATOM     19  C   UNL     1      -0.124  -1.167   1.974  0.00  0.00    +0.000 A 
ATOM     20  C   UNL     1      -0.868  -4.090  -3.531  0.00  0.00    +0.000 A 
ENDBRANCH   2  15
BRANCH   1  22
ATOM     21  C   UNL     1       1.096   0.007   0.027  0.00  0.00    +0.000 C 
ATOM     22  O   UNL     1       0.623  -0.991  -0.865  0.00  0.00    +0.000 OA
ENDBRANCH   1  22
TORSDOF 2
