REMARK  Name = 
REMARK  10 active torsions:
REMARK  status: ('A' for Active; 'I' for Inactive)
REMARK    1  A    between atoms: C_3  and  C_4
REMARK    2  A    between atoms: C_7  and  O_8
REMARK    3  A    between atoms: C_15  and  O_16
REMARK    4  A    between atoms: O_16  and  C_17
REMARK    5  A    between atoms: C_19  and  C_20
REMARK    6  A    between atoms: C_20  and  O_21
REMARK    7  A    between atoms: C_22  and  O_23
REMARK    8  A    between atoms: C_24  and  O_25
REMARK    9  A    between atoms: C_26  and  O_27
REMARK   10  A    between atoms: C_29  and  O_30
REMARK                            x       y       z     vdW  Elec       q    Type
REMARK                         _______ _______ _______ _____ _____    ______ ____
ROOT
ATOM      1  O   UNL     1       1.077  -0.030  -0.056  0.00  0.00    +0.000 OA
ATOM      2  C   UNL     1       2.348  -0.030  -0.056  0.00  0.00    +0.000 A 
ATOM      3  C   UNL     1       3.068   1.151   0.346  0.00  0.00    +0.000 A 
ATOM      4  C   UNL     1       4.508   1.151   0.346  0.00  0.00    +0.000 A 
ATOM      5  O   UNL     1       5.181   0.048  -0.030  0.00  0.00    +0.000 OA
ATOM      6  C   UNL     1       4.508  -1.055  -0.405  0.00  0.00    +0.000 A 
ATOM      7  C   UNL     1       5.228  -2.236  -0.807  0.00  0.00    +0.000 A 
ATOM      8  C   UNL     1       6.669  -2.236  -0.807  0.00  0.00    +0.000 A 
ATOM      9  C   UNL     1       7.389  -1.055  -0.405  0.00  0.00    +0.000 A 
ATOM     10  C   UNL     1       6.669   0.125  -0.003  0.00  0.00    +0.000 A 
ATOM     11  C   UNL     1       3.068  -1.055  -0.405  0.00  0.00    +0.000 A 
ENDROOT
BRANCH   3  12
ATOM     12  C   UNL     1       2.308   2.397   0.770  0.00  0.00    +0.000 A 
ATOM     13  C   UNL     1       0.868   2.397   0.770  0.00  0.00    +0.000 A 
ATOM     14  C   UNL     1       0.148   1.216   0.368  0.00  0.00    +0.000 A 
ATOM     15  C   UNL     1      -1.292   1.216   0.368  0.00  0.00    +0.000 A 
ATOM     16  C   UNL     1      -2.013   2.397   0.770  0.00  0.00    +0.000 A 
ATOM     17  C   UNL     1       3.028   3.577   1.172  0.00  0.00    +0.000 A 
BRANCH  15  18
ATOM     18  O   UNL     1      -2.002   0.052  -0.028  0.00  0.00    +0.000 OA
ATOM     19  H   UNL     1      -1.502  -0.768  -0.308  0.00  0.00    +0.000 HD
ENDBRANCH  15  18
ENDBRANCH   3  12
BRANCH  10  20
ATOM     20  O   UNL     1       5.249   0.125  -0.003  0.00  0.00    +0.000 OA
ATOM     21  H   UNL     1       4.749   0.945   0.276  0.00  0.00    +0.000 HD
ENDBRANCH  10  20
BRANCH   8  22
ATOM     22  O   UNL     1       7.379  -3.400  -1.204  0.00  0.00    +0.000 OA
BRANCH  22  23
ATOM     23  C   UNL     1       6.669  -4.564  -1.600  0.00  0.00    +0.000 C 
ATOM     24  O   UNL     1       6.080  -5.801  -5.868  0.00  0.00    +0.000 OA
ATOM     25  C   UNL     1       6.896  -6.104  -4.747  0.00  0.00    +0.000 C 
ATOM     26  C   UNL     1       7.656  -4.858  -4.322  0.00  0.00    +0.000 C 
ATOM     27  C   UNL     1       6.669  -3.764  -3.950  0.00  0.00    +0.000 C 
ATOM     28  C   UNL     1       5.795  -4.240  -2.801  0.00  0.00    +0.000 C 
BRANCH  26  29
ATOM     29  O   UNL     1       8.473  -4.413  -5.396  0.00  0.00    +0.000 OA
ATOM     30  H   UNL     1       7.898  -4.200  -6.186  0.00  0.00    +0.000 HD
ENDBRANCH  26  29
BRANCH  27  31
ATOM     31  O   UNL     1       7.379  -2.600  -3.553  0.00  0.00    +0.000 OA
ATOM     32  H   UNL     1       7.085  -2.749  -2.609  0.00  0.00    +0.000 HD
ENDBRANCH  27  31
BRANCH  28  33
ATOM     33  O   UNL     1       5.085  -5.405  -3.197  0.00  0.00    +0.000 OA
ATOM     34  H   UNL     1       5.735  -6.124  -3.442  0.00  0.00    +0.000 HD
ENDBRANCH  28  33
BRANCH  25  35
ATOM     35  C   UNL     1       6.022  -6.580  -3.598  0.00  0.00    +0.000 C 
BRANCH  35  36
ATOM     36  O   UNL     1       6.893  -7.129  -2.620  0.00  0.00    +0.000 OA
ATOM     37  H   UNL     1       7.399  -7.895  -3.016  0.00  0.00    +0.000 HD
ENDBRANCH  35  36
ENDBRANCH  25  35
ENDBRANCH  22  23
ENDBRANCH   8  22
TORSDOF 10
