REMARK  Name = 
REMARK  6 active torsions:
REMARK  status: ('A' for Active; 'I' for Inactive)
REMARK    1  A    between atoms: C_1  and  N_2
REMARK    2  A    between atoms: N_2  and  C_3
REMARK    3  A    between atoms: C_6  and  C_7
REMARK    4  A    between atoms: C_8  and  C_9
REMARK    5  A    between atoms: C_8  and  C_11
REMARK    6  A    between atoms: N_15  and  C_16
REMARK                            x       y       z     vdW  Elec       q    Type
REMARK                         _______ _______ _______ _____ _____    ______ ____
ROOT
ATOM      1  C   UNL     1       1.031   0.076  -0.058  0.00  0.00    +0.000 C 
ATOM      2  N   UNL     1       0.541  -0.546  -1.296  0.00  0.00    +0.000 N 
ATOM      3  C   UNL     1      -0.304  -1.747  -1.232  0.00  0.00    +0.000 C 
ATOM      4  C   UNL     1       0.896   0.034  -2.600  0.00  0.00    +0.000 A 
ATOM      5  N   UNL     1       0.432  -0.555  -3.774  0.00  0.00    +0.000 NA
ATOM      6  C   UNL     1       0.768  -0.005  -5.009  0.00  0.00    +0.000 A 
ATOM      7  C   UNL     1       0.288  -0.614  -6.222  0.00  0.00    +0.000 A 
ATOM      8 CL   UNL     1       0.718   0.088  -7.800  0.00  0.00    +0.000 Cl
ATOM      9  N   UNL     1       1.697   1.172  -2.661  0.00  0.00    +0.000 N 
ENDROOT
BRANCH   9  10
ATOM     10  C   UNL     1       2.187   1.793  -1.422  0.00  0.00    +0.000 A 
ATOM     11  C   UNL     1       3.015   2.970  -1.485  0.00  0.00    +0.000 A 
ATOM     12  C   UNL     1       3.363   3.538  -2.762  0.00  0.00    +0.000 A 
ATOM     13  C   UNL     1       4.191   4.715  -2.825  0.00  0.00    +0.000 A 
ATOM     14  F   UNL     1       4.512   5.239  -4.005  0.00  0.00    +0.000 F 
ATOM     15  C   UNL     1       4.671   5.323  -1.612  0.00  0.00    +0.000 A 
ATOM     16  C   UNL     1       1.839   1.225  -0.145  0.00  0.00    +0.000 A 
ENDBRANCH   9  10
BRANCH   6  17
ATOM     17  C   UNL     1       1.642   1.236  -5.075  0.00  0.00    +0.000 C 
ATOM     18  C   UNL     1       1.971   1.773  -6.281  0.00  0.00    +0.000 C 
BRANCH  18  19
ATOM     19  C   UNL     1       2.845   3.015  -6.348  0.00  0.00    +0.000 C 
ATOM     20  N   UNL     1       3.569   4.045  -6.404  0.00  0.00    +0.000 NA
ENDBRANCH  18  19
BRANCH  18  21
ATOM     21  C   UNL     1       1.464   1.130  -7.562  0.00  0.00    +0.000 C 
ATOM     22  N   UNL     1       1.044   0.597  -8.625  0.00  0.00    +0.000 NA
ENDBRANCH  18  21
ENDBRANCH   6  17
TORSDOF 4
