REMARK  Name = 
REMARK  11 active torsions:
REMARK  status: ('A' for Active; 'I' for Inactive)
REMARK    1  A    between atoms: C_1  and  O_2
REMARK    2  A    between atoms: O_2  and  N_3
REMARK    3  A    between atoms: C_4  and  C_5
REMARK    4  A    between atoms: C_5  and  C_16
REMARK    5  A    between atoms: N_6  and  N_7
REMARK    6  A    between atoms: N_7  and  C_8
REMARK    7  A    between atoms: C_11  and  O_12
REMARK    8  A    between atoms: O_12  and  C_13
REMARK    9  A    between atoms: C_16  and  C_18
REMARK   10  A    between atoms: C_21  and  O_22
REMARK   11  A    between atoms: O_22  and  C_23
REMARK                            x       y       z     vdW  Elec       q    Type
REMARK                         _______ _______ _______ _____ _____    ______ ____
ROOT
ATOM      1  C   UNL     1       0.705  -3.182   3.664  0.00  0.00    +0.000 C 
ATOM      2  N   UNL     1       0.266  -3.479   4.868  0.00  0.00    +0.000 NA
ENDROOT
BRANCH   1   4
ATOM      3  N   UNL     1       0.776  -1.553   1.824  0.00  0.00    +0.000 NA
ATOM      4  C   UNL     1       0.338  -1.851   3.028  0.00  0.00    +0.000 C 
BRANCH   3   6
ATOM      5  C   UNL     1       0.919  -0.032  -0.048  0.00  0.00    +0.000 C 
ATOM      6  O   UNL     1       0.445  -0.353   1.252  0.00  0.00    +0.000 OA
ENDBRANCH   3   6
ENDBRANCH   1   4
BRANCH   2   7
ATOM      7  N   UNL     1      -0.550  -2.557   5.574  0.00  0.00    +0.000 N 
ATOM      8  H   UNL     1      -0.890  -2.787   6.508  0.00  0.00    +0.000 HD
BRANCH   7   9
ATOM      9  C   UNL     1      -0.905  -1.269   4.960  0.00  0.00    +0.000 A 
ATOM     10  C   UNL     1      -0.425  -0.944   3.642  0.00  0.00    +0.000 A 
ATOM     11  C   UNL     1       0.403  -1.879   2.925  0.00  0.00    +0.000 A 
ATOM     12  C   UNL     1       0.883  -1.554   1.607  0.00  0.00    +0.000 A 
ATOM     13  C   UNL     1       0.535  -0.292   1.005  0.00  0.00    +0.000 A 
ATOM     14  C   UNL     1      -1.733  -0.334   5.676  0.00  0.00    +0.000 A 
BRANCH  12  15
ATOM     15  O   UNL     1       1.699  -2.476   0.901  0.00  0.00    +0.000 OA
ATOM     16  C   UNL     1       2.042  -3.720   1.494  0.00  0.00    +0.000 C 
ENDBRANCH  12  15
ENDBRANCH   7   9
ENDBRANCH   2   7
BRANCH   1  17
ATOM     17  C   UNL     1       1.579  -4.169   2.908  0.00  0.00    +0.000 C 
ATOM     18  O   UNL     1       2.002  -3.882   1.744  0.00  0.00    +0.000 OA
BRANCH  17  19
ATOM     19  C   UNL     1       1.946  -5.501   3.543  0.00  0.00    +0.000 A 
ATOM     20  C   UNL     1       2.774  -6.436   2.826  0.00  0.00    +0.000 A 
ATOM     21  C   UNL     1       3.254  -6.111   1.508  0.00  0.00    +0.000 A 
ATOM     22  C   UNL     1       4.082  -7.046   0.792  0.00  0.00    +0.000 A 
ATOM     23  C   UNL     1       4.430  -8.308   1.394  0.00  0.00    +0.000 A 
ATOM     24  C   UNL     1       1.466  -5.826   4.861  0.00  0.00    +0.000 A 
BRANCH  22  25
ATOM     25  O   UNL     1       4.555  -6.725  -0.508  0.00  0.00    +0.000 OA
ATOM     26  C   UNL     1       4.212  -5.482  -1.101  0.00  0.00    +0.000 C 
ENDBRANCH  22  25
ENDBRANCH  17  19
ENDBRANCH   1  17
TORSDOF 8
