REMARK  Name = 
REMARK  4 active torsions:
REMARK  status: ('A' for Active; 'I' for Inactive)
REMARK    1  A    between atoms: C_8  and  C_9
REMARK    2  A    between atoms: C_12  and  C_13
REMARK    3  A    between atoms: C_16  and  C_17
REMARK    4  A    between atoms: C_18  and  C_19
REMARK                            x       y       z     vdW  Elec       q    Type
REMARK                         _______ _______ _______ _____ _____    ______ ____
ROOT
ATOM      1  C   UNL     1       2.264   2.528  -0.369  0.00  0.00    +0.000 A 
ATOM      2  N   UNL     1       2.960   3.727  -0.498  0.00  0.00    +0.000 NA
ATOM      3  C   UNL     1       2.264   4.926  -0.627  0.00  0.00    +0.000 A 
ATOM      4  C   UNL     1       0.824   4.926  -0.627  0.00  0.00    +0.000 A 
ATOM      5  N   UNL     1       0.871   2.528  -0.369  0.00  0.00    +0.000 N 
ATOM      6  H   UNL     1       0.361   1.650  -0.274  0.00  0.00    +0.000 HD
ENDROOT
BRANCH   1  14
ATOM      7  F   UNL     1       0.974  -0.021  -0.094  0.00  0.00    +0.000 F 
ATOM      8  C   UNL     1       2.304  -0.021  -0.094  0.00  0.00    +0.000 A 
ATOM      9  C   UNL     1       3.024  -1.261   0.039  0.00  0.00    +0.000 A 
ATOM     10  C   UNL     1       2.304  -2.501   0.173  0.00  0.00    +0.000 A 
ATOM     11  C   UNL     1       3.024  -3.741   0.307  0.00  0.00    +0.000 A 
ATOM     12  C   UNL     1       2.304  -4.981   0.440  0.00  0.00    +0.000 A 
ATOM     13 CL   UNL     1       0.524  -4.981   0.440  0.00  0.00    +0.000 Cl
ATOM     14  C   UNL     1       3.024   1.219  -0.228  0.00  0.00    +0.000 A 
ENDBRANCH   1  14
BRANCH   4  15
ATOM     15  C   UNL     1       0.064   3.618  -0.486  0.00  0.00    +0.000 A 
ATOM     16  C   UNL     1      -1.377   3.618  -0.486  0.00  0.00    +0.000 A 
ATOM     17  C   UNL     1      -2.097   4.858  -0.620  0.00  0.00    +0.000 A 
ATOM     18  C   UNL     1      -3.537   4.858  -0.620  0.00  0.00    +0.000 A 
ATOM     19  C   UNL     1      -4.257   3.618  -0.486  0.00  0.00    +0.000 A 
ATOM     20  C   UNL     1       0.784   2.378  -0.353  0.00  0.00    +0.000 A 
BRANCH  18  21
ATOM     21  C   UNL     1      -4.297   6.167  -0.761  0.00  0.00    +0.000 C 
ATOM     22  C   UNL     1      -5.657   6.167  -0.761  0.00  0.00    +0.000 C 
BRANCH  22  23
ATOM     23  C   UNL     1      -6.417   7.475  -0.902  0.00  0.00    +0.000 A 
ATOM     24  C   UNL     1      -5.697   8.715  -1.036  0.00  0.00    +0.000 A 
ATOM     25  C   UNL     1      -4.257   8.715  -1.036  0.00  0.00    +0.000 A 
ATOM     26  C   UNL     1      -3.537   9.955  -1.170  0.00  0.00    +0.000 A 
ATOM     27  C   UNL     1      -2.097   9.955  -1.170  0.00  0.00    +0.000 A 
ATOM     28  C   UNL     1      -7.857   7.475  -0.902  0.00  0.00    +0.000 A 
ENDBRANCH  22  23
ENDBRANCH  18  21
ENDBRANCH   4  15
TORSDOF 4
