REMARK  Name = 
REMARK  7 active torsions:
REMARK  status: ('A' for Active; 'I' for Inactive)
REMARK    1  A    between atoms: C_2  and  C_3
REMARK    2  A    between atoms: C_4  and  C_5
REMARK    3  A    between atoms: C_8  and  C_9
REMARK    4  A    between atoms: C_10  and  C_11
REMARK    5  A    between atoms: C_20  and  C_21
REMARK    6  A    between atoms: C_21  and  O_22
REMARK    7  A    between atoms: C_24  and  C_26
REMARK                            x       y       z     vdW  Elec       q    Type
REMARK                         _______ _______ _______ _____ _____    ______ ____
ROOT
ATOM      1  C   UNL     1       3.819  -0.068  -0.063  0.00  0.00    +0.000 C 
ATOM      2  C   UNL     1       6.496  -0.758   2.218  0.00  0.00    +0.000 C 
ATOM      3  C   UNL     1       5.154  -1.281   1.734  0.00  0.00    +0.000 C 
ATOM      4  N   UNL     1       4.309  -0.151   1.320  0.00  0.00    +0.000 N 
ATOM      5  C   UNL     1       3.954   0.895   2.290  0.00  0.00    +0.000 C 
ATOM      6  O   UNL     1       3.223   1.871   1.933  0.00  0.00    +0.000 OA
ENDROOT
BRANCH   2   7
ATOM      7  C   UNL     1       7.370  -1.926   2.646  0.00  0.00    +0.000 A 
ATOM      8  C   UNL     1       6.935  -2.802   3.704  0.00  0.00    +0.000 A 
ATOM      9  C   UNL     1       5.673  -2.570   4.356  0.00  0.00    +0.000 A 
ATOM     10  C   UNL     1       5.238  -3.446   5.414  0.00  0.00    +0.000 A 
ATOM     11  C   UNL     1       6.066  -4.552   5.819  0.00  0.00    +0.000 A 
ATOM     12  C   UNL     1       8.633  -2.157   1.993  0.00  0.00    +0.000 A 
BRANCH  10  13
ATOM     13  C   UNL     1       3.905  -3.202   6.102  0.00  0.00    +0.000 C 
ATOM     14  C   UNL     1       2.761  -2.993   6.693  0.00  0.00    +0.000 C 
BRANCH  14  15
ATOM     15  C   UNL     1       1.429  -2.749   7.382  0.00  0.00    +0.000 A 
ATOM     16  C   UNL     1       1.389  -2.456   8.791  0.00  0.00    +0.000 A 
ATOM     17  C   UNL     1       2.613  -2.393   9.548  0.00  0.00    +0.000 A 
ATOM     18  C   UNL     1       2.574  -2.100  10.958  0.00  0.00    +0.000 A 
ATOM     19  C   UNL     1       3.797  -2.038  11.715  0.00  0.00    +0.000 A 
ATOM     20  F   UNL     1       4.964  -2.252  11.112  0.00  0.00    +0.000 F 
ATOM     21  C   UNL     1       0.205  -2.811   6.625  0.00  0.00    +0.000 A 
ENDBRANCH  14  15
ENDBRANCH  10  13
ENDBRANCH   2   7
BRANCH   5  22
ATOM     22  C   UNL     1       4.460   0.808   3.721  0.00  0.00    +0.000 C 
ATOM     23  C   UNL     1       5.980   0.808   3.721  0.00  0.00    +0.000 C 
ATOM     24  C   UNL     1       6.487   2.090   3.080  0.00  0.00    +0.000 C 
ATOM     25  C   UNL     1       3.954  -0.474   4.361  0.00  0.00    +0.000 C 
ENDBRANCH   5  22
BRANCH   1  27
ATOM     26  N   UNL     1       4.591  -2.292  -1.533  0.00  0.00    +0.000 NA
ATOM     27  C   UNL     1       4.325  -1.263  -0.853  0.00  0.00    +0.000 C 
ENDBRANCH   1  27
BRANCH   3  28
ATOM     28  C   UNL     1       4.470  -2.040   2.859  0.00  0.00    +0.000 C 
BRANCH  28  29
ATOM     29  O   UNL     1       3.216  -2.528   2.406  0.00  0.00    +0.000 OA
ATOM     30  H   UNL     1       2.641  -1.760   2.125  0.00  0.00    +0.000 HD
ENDBRANCH  28  29
ENDBRANCH   3  28
TORSDOF 7
