REMARK  Name = 
REMARK  5 active torsions:
REMARK  status: ('A' for Active; 'I' for Inactive)
REMARK    1  A    between atoms: C_1  and  N_2
REMARK    2  A    between atoms: C_6  and  C_7
REMARK    3  A    between atoms: C_7  and  C_9
REMARK    4  A    between atoms: C_9  and  C_10
REMARK    5  A    between atoms: C_12  and  C_13
REMARK                            x       y       z     vdW  Elec       q    Type
REMARK                         _______ _______ _______ _____ _____    ______ ____
ROOT
ATOM      1  C   UNL     1      -1.579   1.959  -3.067  0.00  0.00    +0.000 C 
ATOM      2  C   UNL     1      -1.907   1.331  -4.228  0.00  0.00    +0.000 C 
ENDROOT
BRANCH   2   3
ATOM      3  C   UNL     1      -2.781   2.036  -5.253  0.00  0.00    +0.000 A 
ATOM      4  C   UNL     1      -3.261   3.369  -4.994  0.00  0.00    +0.000 A 
ATOM      5  C   UNL     1      -2.914   4.034  -3.764  0.00  0.00    +0.000 A 
ATOM      6  C   UNL     1      -3.394   5.367  -3.505  0.00  0.00    +0.000 A 
ATOM      7  F   UNL     1      -3.072   5.980  -2.370  0.00  0.00    +0.000 F 
ATOM      8  C   UNL     1      -4.222   6.035  -4.476  0.00  0.00    +0.000 A 
ATOM      9  C   UNL     1      -3.129   1.372  -6.482  0.00  0.00    +0.000 A 
ENDBRANCH   2   3
BRANCH   1  10
ATOM     10  C   UNL     1      -0.705   1.253  -2.043  0.00  0.00    +0.000 C 
ATOM     11  O   UNL     1      -0.281   0.077  -2.271  0.00  0.00    +0.000 OA
BRANCH  10  17
ATOM     12  C   UNL     1       0.953  -0.052  -0.071  0.00  0.00    +0.000 C 
ATOM     13  N   UNL     1       0.463   1.308   0.193  0.00  0.00    +0.000 N 
ATOM     14  C   UNL     1       0.799   1.951   1.382  0.00  0.00    +0.000 A 
ATOM     15  C   UNL     1       1.627   1.282   2.353  0.00  0.00    +0.000 A 
ATOM     16  C   UNL     1       1.975   1.947   3.582  0.00  0.00    +0.000 A 
ATOM     17  C   UNL     1      -0.338   1.955  -0.745  0.00  0.00    +0.000 A 
ENDBRANCH  10  17
ENDBRANCH   1  10
BRANCH   1  18
ATOM     18  C   UNL     1      -2.086   3.365  -2.794  0.00  0.00    +0.000 C 
ATOM     19  N   UNL     1      -2.506   4.532  -2.567  0.00  0.00    +0.000 NA
ENDBRANCH   1  18
TORSDOF 4
