REMARK  Name = 
REMARK  9 active torsions:
REMARK  status: ('A' for Active; 'I' for Inactive)
REMARK    1  A    between atoms: C_1  and  O_2
REMARK    2  A    between atoms: O_2  and  C_3
REMARK    3  A    between atoms: C_6  and  C_7
REMARK    4  A    between atoms: N_9  and  C_10
REMARK    5  A    between atoms: C_10  and  C_11
REMARK    6  A    between atoms: C_14  and  C_15
REMARK    7  A    between atoms: C_15  and  N_16
REMARK    8  A    between atoms: C_34  and  O_35
REMARK    9  A    between atoms: O_35  and  C_36
REMARK                            x       y       z     vdW  Elec       q    Type
REMARK                         _______ _______ _______ _____ _____    ______ ____
ROOT
ATOM      1  C   UNL     1      -1.757  -3.417  -4.968  0.00  0.00    +0.000 C 
ATOM      2  N   UNL     1      -2.874  -3.988  -4.571  0.00  0.00    +0.000 NA
ATOM      3  N   UNL     1      -3.072  -5.379  -4.774  0.00  0.00    +0.000 N 
ATOM      4  C   UNL     1      -4.321  -6.016  -4.331  0.00  0.00    +0.000 C 
ATOM      5  O   UNL     1      -5.270  -5.420  -4.930  0.00  0.00    +0.000 OA
ATOM      6  C   UNL     1      -4.533  -7.506  -4.549  0.00  0.00    +0.000 C 
ATOM      7  C   UNL     1      -4.470  -7.815  -6.036  0.00  0.00    +0.000 C 
ATOM      8  C   UNL     1      -5.557  -7.037  -6.760  0.00  0.00    +0.000 C 
ATOM      9  C   UNL     1      -6.515  -7.701  -7.462  0.00  0.00    +0.000 C 
ATOM     10  C   UNL     1      -7.602  -6.923  -8.187  0.00  0.00    +0.000 C 
ATOM     11  C   UNL     1      -3.446  -8.283  -3.824  0.00  0.00    +0.000 C 
ENDROOT
BRANCH   1  15
ATOM     12  C   UNL     1       0.905   0.122  -2.525  0.00  0.00    +0.000 A 
ATOM     13  C   UNL     1       0.425  -0.437  -3.762  0.00  0.00    +0.000 A 
ATOM     14  C   UNL     1      -0.403  -1.615  -3.747  0.00  0.00    +0.000 A 
ATOM     15  C   UNL     1      -0.883  -2.174  -4.984  0.00  0.00    +0.000 A 
ATOM     16  C   UNL     1      -0.535  -1.554  -6.237  0.00  0.00    +0.000 A 
ATOM     17  C   UNL     1       1.733   1.301  -2.540  0.00  0.00    +0.000 A 
BRANCH  12  19
ATOM     18  C   UNL     1       1.035   0.063  -0.069  0.00  0.00    +0.000 C 
ATOM     19  O   UNL     1       0.562  -0.488  -1.290  0.00  0.00    +0.000 OA
ENDBRANCH  12  19
BRANCH  17  20
ATOM     20  O   UNL     1       2.206   1.852  -1.320  0.00  0.00    +0.000 OA
ATOM     21  C   UNL     1       3.023   3.014  -1.335  0.00  0.00    +0.000 C 
ENDBRANCH  17  20
ENDBRANCH   1  15
BRANCH   3  22
ATOM     22  C   UNL     1      -2.029  -6.182  -5.428  0.00  0.00    +0.000 C 
BRANCH  22  23
ATOM     23  C   UNL     1      -0.748  -6.109  -4.613  0.00  0.00    +0.000 A 
ATOM     24  C   UNL     1      -0.114  -4.837  -4.382  0.00  0.00    +0.000 A 
ATOM     25  C   UNL     1      -0.693  -3.634  -4.922  0.00  0.00    +0.000 A 
ATOM     26  C   UNL     1      -0.059  -2.362  -4.691  0.00  0.00    +0.000 A 
ATOM     27  C   UNL     1       1.155  -2.292  -3.919  0.00  0.00    +0.000 A 
ATOM     28  C   UNL     1      -0.169  -7.311  -4.072  0.00  0.00    +0.000 A 
BRANCH  26  29
ATOM     29  C   UNL     1      -0.670  -1.093  -5.262  0.00  0.00    +0.000 C 
BRANCH  29  30
ATOM     30  N   UNL     1      -0.999  -0.171  -4.165  0.00  0.00    +0.000 NA
ATOM     31  C   UNL     1      -1.961  -0.814  -3.258  0.00  0.00    +0.000 C 
ATOM     32  C   UNL     1      -3.227  -1.161  -4.024  0.00  0.00    +0.000 C 
ATOM     33  C   UNL     1      -2.886  -2.114  -5.159  0.00  0.00    +0.000 C 
ATOM     34  O   UNL     1      -3.420  -3.267  -5.203  0.00  0.00    +0.000 OA
ATOM     35  C   UNL     1      -1.907  -1.689  -6.240  0.00  0.00    +0.000 C 
ATOM     36  C   UNL     1      -1.591   1.056  -4.717  0.00  0.00    +0.000 C 
ENDBRANCH  29  30
ENDBRANCH  26  29
ENDBRANCH  22  23
ENDBRANCH   3  22
TORSDOF 7
