REMARK  Name = 
REMARK  9 active torsions:
REMARK  status: ('A' for Active; 'I' for Inactive)
REMARK    1  A    between atoms: C_1  and  O_2
REMARK    2  A    between atoms: O_2  and  C_3
REMARK    3  A    between atoms: C_6  and  C_7
REMARK    4  A    between atoms: N_9  and  N_10
REMARK    5  A    between atoms: N_10  and  C_11
REMARK    6  A    between atoms: C_11  and  N_13
REMARK    7  A    between atoms: C_14  and  C_16
REMARK    8  A    between atoms: C_23  and  O_24
REMARK    9  A    between atoms: O_24  and  C_25
REMARK                            x       y       z     vdW  Elec       q    Type
REMARK                         _______ _______ _______ _____ _____    ______ ____
ROOT
ATOM      1  C   UNL     1      -1.850   5.875   0.817  0.00  0.00    +0.000 C 
ATOM      2  O   UNL     1      -2.273   7.006   1.212  0.00  0.00    +0.000 OA
ATOM      3  N   UNL     1      -2.205   5.384  -0.523  0.00  0.00    +0.000 N 
ATOM      4  H   UNL     1      -2.791   5.951  -1.135  0.00  0.00    +0.000 HD
ENDROOT
BRANCH   1   8
ATOM      5  C   UNL     1       0.812   1.665   1.698  0.00  0.00    +0.000 A 
ATOM      6  C   UNL     1       0.332   2.947   2.146  0.00  0.00    +0.000 A 
ATOM      7  C   UNL     1      -0.496   3.748   1.281  0.00  0.00    +0.000 A 
ATOM      8  C   UNL     1      -0.976   5.030   1.729  0.00  0.00    +0.000 A 
ATOM      9  C   UNL     1      -0.628   5.511   3.041  0.00  0.00    +0.000 A 
ATOM     10  C   UNL     1       1.640   0.864   2.562  0.00  0.00    +0.000 A 
BRANCH   5  12
ATOM     11  C   UNL     1       0.943  -0.073  -0.037  0.00  0.00    +0.000 C 
ATOM     12  O   UNL     1       0.469   1.191   0.404  0.00  0.00    +0.000 OA
ENDBRANCH   5  12
BRANCH  10  13
ATOM     13  O   UNL     1       2.114  -0.400   2.121  0.00  0.00    +0.000 OA
ATOM     14  C   UNL     1       2.930  -1.189   2.973  0.00  0.00    +0.000 C 
ENDBRANCH  10  13
ENDBRANCH   1   8
BRANCH   3  15
ATOM     15  N   UNL     1      -1.731   4.120  -0.964  0.00  0.00    +0.000 N 
ATOM     16  H   UNL     1      -1.145   3.553  -0.352  0.00  0.00    +0.000 HD
BRANCH  15  17
ATOM     17  C   UNL     1      -2.087   3.629  -2.303  0.00  0.00    +0.000 C 
ATOM     18  S   UNL     1      -1.547   2.187  -2.807  0.00  0.00    +0.000 S 
BRANCH  17  19
ATOM     19  N   UNL     1      -2.932   4.447  -3.186  0.00  0.00    +0.000 N 
ATOM     20  C   UNL     1      -3.422   5.755  -2.729  0.00  0.00    +0.000 C 
ATOM     21  O   UNL     1      -4.152   6.462  -3.491  0.00  0.00    +0.000 OA
ATOM     22  H   UNL     1      -3.178   4.106  -4.115  0.00  0.00    +0.000 HD
BRANCH  20  23
ATOM     23  C   UNL     1      -3.054   6.263  -1.344  0.00  0.00    +0.000 A 
ATOM     24  C   UNL     1      -3.535   7.545  -0.896  0.00  0.00    +0.000 A 
ATOM     25  C   UNL     1      -4.363   8.346  -1.760  0.00  0.00    +0.000 A 
ATOM     26  C   UNL     1      -4.843   9.628  -1.313  0.00  0.00    +0.000 A 
ATOM     27 BR   UNL     1      -4.369  10.282   0.473  0.00  0.00    +0.000 Br
ATOM     28  O   UNL     1      -2.281   5.515  -0.536  0.00  0.00    +0.000 OA
ENDBRANCH  20  23
ENDBRANCH  17  19
ENDBRANCH  15  17
ENDBRANCH   3  15
TORSDOF 7
