REMARK  Name = 
REMARK  6 active torsions:
REMARK  status: ('A' for Active; 'I' for Inactive)
REMARK    1  A    between atoms: C_1  and  C_2
REMARK    2  A    between atoms: C_2  and  C_3
REMARK    3  A    between atoms: N_4  and  N_5
REMARK    4  A    between atoms: C_6  and  C_8
REMARK    5  A    between atoms: C_10  and  C_11
REMARK    6  A    between atoms: C_24  and  C_25
REMARK                            x       y       z     vdW  Elec       q    Type
REMARK                         _______ _______ _______ _____ _____    ______ ____
ROOT
ATOM      1  C   UNL     1      -1.493  -3.121  -1.497  0.00  0.00    +0.000 A 
ATOM      2  C   UNL     1      -1.841  -4.272  -0.704  0.00  0.00    +0.000 A 
ATOM      3  C   UNL     1      -2.669  -5.309  -1.265  0.00  0.00    +0.000 A 
ATOM      4  N   UNL     1      -3.133  -5.198  -2.574  0.00  0.00    +0.000 NA
ATOM      5  C   UNL     1      -3.934  -6.200  -3.116  0.00  0.00    +0.000 A 
ATOM      6  C   UNL     1      -4.414  -6.085  -4.469  0.00  0.00    +0.000 A 
ATOM      7  C   UNL     1      -4.066  -4.934  -5.261  0.00  0.00    +0.000 A 
ATOM      8  C   UNL     1      -4.546  -4.819  -6.614  0.00  0.00    +0.000 A 
ATOM      9  C   UNL     1      -4.198  -3.667  -7.406  0.00  0.00    +0.000 A 
ATOM     10  C   UNL     1      -4.282  -7.351  -2.324  0.00  0.00    +0.000 A 
ENDROOT
BRANCH   3  11
ATOM     11  C   UNL     1      -3.036  -6.524  -0.429  0.00  0.00    +0.000 A 
ATOM     12  C   UNL     1      -2.556  -6.639   0.924  0.00  0.00    +0.000 A 
ATOM     13  C   UNL     1      -1.728  -5.602   1.485  0.00  0.00    +0.000 A 
ATOM     14  C   UNL     1      -1.248  -5.717   2.838  0.00  0.00    +0.000 A 
ATOM     15  C   UNL     1      -0.420  -4.681   3.398  0.00  0.00    +0.000 A 
ATOM     16  C   UNL     1      -3.864  -7.560  -0.990  0.00  0.00    +0.000 A 
ENDBRANCH   3  11
BRANCH   1  18
ATOM     17  N   UNL     1      -1.645  -1.825  -3.733  0.00  0.00    +0.000 N 
ATOM     18  C   UNL     1      -2.000  -3.000  -2.925  0.00  0.00    +0.000 C 
ATOM     19  O   UNL     1      -2.730  -3.914  -3.419  0.00  0.00    +0.000 OA
ATOM     20  H   UNL     1      -1.985  -1.743  -4.691  0.00  0.00    +0.000 HD
BRANCH  17  22
ATOM     21  C   UNL     1      -0.390  -0.908  -1.944  0.00  0.00    +0.000 C 
ATOM     22  N   UNL     1      -0.828  -0.803  -3.180  0.00  0.00    +0.000 NA
BRANCH  21  24
ATOM     23  C   UNL     1       0.991   0.065   0.075  0.00  0.00    +0.000 C 
ATOM     24  C   UNL     1       0.484   0.186  -1.352  0.00  0.00    +0.000 C 
ATOM     25  C   UNL     1       0.813   1.274  -2.101  0.00  0.00    +0.000 C 
BRANCH  25  26
ATOM     26  C   UNL     1       1.687   2.368  -1.509  0.00  0.00    +0.000 A 
ATOM     27  C   UNL     1       2.167   2.253  -0.156  0.00  0.00    +0.000 A 
ATOM     28  C   UNL     1       1.819   1.101   0.636  0.00  0.00    +0.000 A 
ATOM     29  C   UNL     1       2.299   0.987   1.989  0.00  0.00    +0.000 A 
ATOM     30  O   UNL     1       2.012   3.443  -2.249  0.00  0.00    +0.000 OA
ENDBRANCH  25  26
ENDBRANCH  21  24
ENDBRANCH  17  22
ENDBRANCH   1  18
TORSDOF 5
