REMARK  Name = 
REMARK  8 active torsions:
REMARK  status: ('A' for Active; 'I' for Inactive)
REMARK    1  A    between atoms: N_1  and  S_2
REMARK    2  A    between atoms: S_2  and  C_5
REMARK    3  A    between atoms: C_7  and  N_8
REMARK    4  A    between atoms: C_9  and  C_11
REMARK    5  A    between atoms: C_11  and  C_12
REMARK    6  A    between atoms: C_21  and  O_22
REMARK    7  A    between atoms: O_22  and  C_23
REMARK    8  A    between atoms: C_27  and  N_28
REMARK                            x       y       z     vdW  Elec       q    Type
REMARK                         _______ _______ _______ _____ _____    ______ ____
ROOT
ATOM      1  C   UNL     1       1.106   2.025   2.072  0.00  0.00    +0.000 A 
ATOM      2  C   UNL     1       0.758   3.304   2.636  0.00  0.00    +0.000 A 
ATOM      3  C   UNL     1      -0.070   4.217   1.891  0.00  0.00    +0.000 A 
ATOM      4  C   UNL     1      -0.550   3.852   0.584  0.00  0.00    +0.000 A 
ATOM      5  C   UNL     1      -0.202   2.573   0.020  0.00  0.00    +0.000 A 
ATOM      6  C   UNL     1       1.934   1.111   2.817  0.00  0.00    +0.000 A 
ENDROOT
BRANCH   3   7
ATOM      7  N   UNL     1      -0.425   5.523   2.466  0.00  0.00    +0.000 N 
ATOM      8  C   UNL     1      -1.270   6.455   1.706  0.00  0.00    +0.000 C 
ATOM      9  O   UNL     1      -1.577   7.584   2.204  0.00  0.00    +0.000 OA
ATOM     10  H   UNL     1      -0.085   5.782   3.392  0.00  0.00    +0.000 HD
BRANCH   8  11
ATOM     11  C   UNL     1      -1.777   6.069   0.326  0.00  0.00    +0.000 C 
BRANCH  11  12
ATOM     12  C   UNL     1      -0.595   5.812  -0.594  0.00  0.00    +0.000 A 
ATOM     13  C   UNL     1       0.357   6.861  -0.853  0.00  0.00    +0.000 A 
ATOM     14  C   UNL     1       0.189   8.154  -0.241  0.00  0.00    +0.000 A 
ATOM     15  C   UNL     1       1.141   9.203  -0.501  0.00  0.00    +0.000 A 
ATOM     16  C   UNL     1       0.973  10.496   0.112  0.00  0.00    +0.000 A 
ATOM     17  C   UNL     1      -0.427   4.520  -1.206  0.00  0.00    +0.000 A 
ATOM     18 CL   UNL     1      -1.603   3.223  -0.885  0.00  0.00    +0.000 Cl
ENDBRANCH  11  12
ENDBRANCH   8  11
ENDBRANCH   3   7
BRANCH   1  19
ATOM     19  S   UNL     1       0.503   1.565   0.429  0.00  0.00    +0.000 S 
ATOM     20  O   UNL     1       1.013   2.575  -0.602  0.00  0.00    +0.000 OA
ATOM     21  O   UNL     1      -1.028   1.565   0.429  0.00  0.00    +0.000 OA
BRANCH  19  22
ATOM     22  N   UNL     1       1.089  -0.042   0.017  0.00  0.00    +0.000 NA
ATOM     23  H   UNL     1       0.749  -0.301  -0.910  0.00  0.00    +0.000 HD
ATOM     24  H   UNL     1       2.109  -0.042   0.017  0.00  0.00    +0.000 HD
ENDBRANCH  19  22
ENDBRANCH   1  19
BRANCH   6  25
ATOM     25  O   UNL     1       2.277  -0.150   2.261  0.00  0.00    +0.000 OA
BRANCH  25  26
ATOM     26  C   UNL     1       3.093  -1.050   2.995  0.00  0.00    +0.000 A 
ATOM     27  C   UNL     1       3.441  -2.329   2.432  0.00  0.00    +0.000 A 
ATOM     28  C   UNL     1       2.961  -2.695   1.124  0.00  0.00    +0.000 A 
ATOM     29  C   UNL     1       3.309  -3.974   0.561  0.00  0.00    +0.000 A 
ATOM     30  C   UNL     1       2.829  -4.339  -0.747  0.00  0.00    +0.000 A 
ATOM     31  C   UNL     1       3.573  -0.685   4.303  0.00  0.00    +0.000 A 
BRANCH  30  32
ATOM     32  N   UNL     1       1.984  -3.407  -1.507  0.00  0.00    +0.000 N 
ATOM     33  C   UNL     1       1.520  -3.760  -2.771  0.00  0.00    +0.000 A 
ATOM     34  N   UNL     1       1.856  -4.997  -3.316  0.00  0.00    +0.000 NA
ATOM     35  N   UNL     1       2.630  -5.851  -2.621  0.00  0.00    +0.000 NA
ATOM     36  C   UNL     1       1.647  -2.170  -0.962  0.00  0.00    +0.000 A 
ENDBRANCH  30  32
ENDBRANCH  25  26
ENDBRANCH   6  25
TORSDOF 8
