REMARK  Name = 
REMARK  6 active torsions:
REMARK  status: ('A' for Active; 'I' for Inactive)
REMARK    1  A    between atoms: C_2  and  N_3
REMARK    2  A    between atoms: C_5  and  O_6
REMARK    3  A    between atoms: C_5  and  C_24
REMARK    4  A    between atoms: O_6  and  C_7
REMARK    5  A    between atoms: C_7  and  C_8
REMARK    6  A    between atoms: C_11  and  C_12
REMARK                            x       y       z     vdW  Elec       q    Type
REMARK                         _______ _______ _______ _____ _____    ______ ____
ROOT
ATOM      1  C   UNL     1       3.040  -4.290  -0.955  0.00  0.00    +0.000 A 
ATOM      2  C   UNL     1       2.446  -5.271  -0.084  0.00  0.00    +0.000 A 
ATOM      3  C   UNL     1       3.267  -5.996   0.850  0.00  0.00    +0.000 A 
ATOM      4  C   UNL     1       2.673  -6.977   1.722  0.00  0.00    +0.000 A 
ATOM      5  C   UNL     1       1.257  -7.233   1.659  0.00  0.00    +0.000 A 
ATOM      6  C   UNL     1       2.218  -3.565  -1.889  0.00  0.00    +0.000 A 
ENDROOT
BRANCH   4   7
ATOM      7  C   UNL     1       3.541  -7.743   2.707  0.00  0.00    +0.000 A 
ATOM      8  C   UNL     1       4.957  -7.487   2.770  0.00  0.00    +0.000 A 
ATOM      9  C   UNL     1       5.551  -6.506   1.899  0.00  0.00    +0.000 A 
ATOM     10  C   UNL     1       6.967  -6.251   1.962  0.00  0.00    +0.000 A 
ATOM     11  C   UNL     1       7.789  -6.976   2.896  0.00  0.00    +0.000 A 
ATOM     12  C   UNL     1       2.947  -8.724   3.579  0.00  0.00    +0.000 A 
ATOM     13  O   UNL     1       9.185  -6.724   2.958  0.00  0.00    +0.000 OA
ATOM     14  C   UNL     1       9.995  -7.439   3.879  0.00  0.00    +0.000 C 
ATOM     15  C   UNL     1       9.511  -7.171   5.294  0.00  0.00    +0.000 C 
ATOM     16  O   UNL     1       7.553  -5.283   1.103  0.00  0.00    +0.000 OA
ENDBRANCH   4   7
BRANCH   1  17
ATOM     17  C   UNL     1       4.534  -4.020  -0.889  0.00  0.00    +0.000 C 
BRANCH  17  18
ATOM     18  O   UNL     1       4.877  -3.574   0.415  0.00  0.00    +0.000 OA
BRANCH  18  21
ATOM     19  N   UNL     1       3.799  -0.073  -0.003  0.00  0.00    +0.000 N 
ATOM     20  C   UNL     1       4.534  -1.309  -0.307  0.00  0.00    +0.000 C 
ATOM     21  C   UNL     1       4.167  -2.379   0.708  0.00  0.00    +0.000 C 
ATOM     22  C   UNL     1       4.534   1.163   0.301  0.00  0.00    +0.000 C 
BRANCH  21  23
ATOM     23  C   UNL     1       4.534  -1.902   2.104  0.00  0.00    +0.000 A 
ATOM     24  C   UNL     1       4.282  -2.745   3.243  0.00  0.00    +0.000 A 
ATOM     25  C   UNL     1       3.682  -4.042   3.061  0.00  0.00    +0.000 A 
ATOM     26  C   UNL     1       3.430  -4.885   4.201  0.00  0.00    +0.000 A 
ATOM     27  C   UNL     1       2.830  -6.182   4.018  0.00  0.00    +0.000 A 
ATOM     28  C   UNL     1       5.134  -0.605   2.286  0.00  0.00    +0.000 A 
ENDBRANCH  21  23
BRANCH  19  30
ATOM     29  N   UNL     1       1.068  -0.073  -0.003  0.00  0.00    +0.000 NA
ATOM     30  C   UNL     1       2.329  -0.073  -0.003  0.00  0.00    +0.000 C 
ENDBRANCH  19  30
ENDBRANCH  18  21
ENDBRANCH  17  18
ENDBRANCH   1  17
TORSDOF 6
