REMARK  Name = 
REMARK  12 active torsions:
REMARK  status: ('A' for Active; 'I' for Inactive)
REMARK    1  A    between atoms: C_1  and  O_2
REMARK    2  A    between atoms: O_2  and  C_3
REMARK    3  A    between atoms: C_9  and  C_10
REMARK    4  A    between atoms: C_10  and  C_11
REMARK    5  A    between atoms: N_13  and  C_14
REMARK    6  A    between atoms: C_14  and  C_15
REMARK    7  A    between atoms: C_15  and  O_16
REMARK    8  A    between atoms: O_16  and  C_17
REMARK    9  A    between atoms: C_20  and  S_21
REMARK   10  A    between atoms: S_21  and  N_22
REMARK   11  A    between atoms: C_27  and  C_28
REMARK   12  A    between atoms: C_30  and  C_32
REMARK                            x       y       z     vdW  Elec       q    Type
REMARK                         _______ _______ _______ _____ _____    ______ ____
ROOT
ATOM      1  C   UNL     1       0.819  -2.479  -0.561  0.00  0.00    +0.000 A 
ATOM      2  C   UNL     1       0.339  -3.803  -0.259  0.00  0.00    +0.000 A 
ATOM      3  C   UNL     1      -0.489  -4.022   0.899  0.00  0.00    +0.000 A 
ATOM      4  C   UNL     1      -0.969  -5.346   1.201  0.00  0.00    +0.000 A 
ATOM      5  C   UNL     1      -0.621  -6.451   0.345  0.00  0.00    +0.000 A 
ATOM      6  C   UNL     1       1.647  -2.260  -1.719  0.00  0.00    +0.000 A 
ATOM      7  C   UNL     1      -1.101  -7.775   0.647  0.00  0.00    +0.000 A 
ATOM      8  C   UNL     1      -0.753  -8.880  -0.209  0.00  0.00    +0.000 A 
ATOM      9  C   UNL     1      -1.260 -10.277   0.109  0.00  0.00    +0.000 C 
ATOM     10  N   UNL     1      -1.770  -5.558   2.320  0.00  0.00    +0.000 N 
ATOM     11  C   UNL     1      -2.125  -4.430   3.194  0.00  0.00    +0.000 C 
ATOM     12  O   UNL     1      -1.701  -3.262   2.928  0.00  0.00    +0.000 OA
ENDROOT
BRANCH  11  13
ATOM     13  C   UNL     1      -2.999  -4.662   4.416  0.00  0.00    +0.000 A 
ATOM     14  C   UNL     1      -3.347  -3.557   5.272  0.00  0.00    +0.000 A 
ATOM     15  C   UNL     1      -2.867  -2.233   4.970  0.00  0.00    +0.000 A 
ATOM     16  C   UNL     1      -3.215  -1.128   5.826  0.00  0.00    +0.000 A 
ATOM     17 CL   UNL     1      -2.621   0.508   5.453  0.00  0.00    +0.000 Cl
ATOM     18  C   UNL     1      -4.043  -1.347   6.984  0.00  0.00    +0.000 A 
ATOM     19  C   UNL     1      -3.479  -5.985   4.718  0.00  0.00    +0.000 A 
ENDBRANCH  11  13
BRANCH   1  21
ATOM     20  C   UNL     1       0.949  -0.085  -0.015  0.00  0.00    +0.000 C 
ATOM     21  O   UNL     1       0.476  -1.390   0.283  0.00  0.00    +0.000 OA
ENDBRANCH   1  21
BRANCH   7  22
ATOM     22  C   UNL     1      -1.975  -8.006   1.869  0.00  0.00    +0.000 C 
BRANCH  22  23
ATOM     23  C   UNL     1      -3.318  -8.569   1.432  0.00  0.00    +0.000 C 
ATOM     24  O   UNL     1      -3.697  -9.706   1.854  0.00  0.00    +0.000 OA
ATOM     25  N   UNL     1      -4.177  -7.799   0.522  0.00  0.00    +0.000 N 
ATOM     26  H   UNL     1      -5.078  -8.177   0.229  0.00  0.00    +0.000 HD
BRANCH  25  27
ATOM     27  C   UNL     1      -3.738  -6.484   0.033  0.00  0.00    +0.000 C 
BRANCH  27  28
ATOM     28  C   UNL     1      -3.649  -6.511  -1.484  0.00  0.00    +0.000 C 
BRANCH  28  29
ATOM     29  O   UNL     1      -4.925  -6.816  -2.027  0.00  0.00    +0.000 OA
BRANCH  29  30
ATOM     30  C   UNL     1      -5.562  -8.042  -1.699  0.00  0.00    +0.000 A 
ATOM     31  C   UNL     1      -6.856  -8.351  -2.250  0.00  0.00    +0.000 A 
ATOM     32  C   UNL     1      -7.504  -7.417  -3.134  0.00  0.00    +0.000 A 
ATOM     33  C   UNL     1      -8.799  -7.726  -3.686  0.00  0.00    +0.000 A 
ATOM     34  C   UNL     1      -9.445  -8.969  -3.353  0.00  0.00    +0.000 A 
ATOM     35  C   UNL     1      -4.914  -8.976  -0.815  0.00  0.00    +0.000 A 
BRANCH  33  36
ATOM     36  S   UNL     1      -9.613  -6.552  -4.796  0.00  0.00    +0.000 S 
ATOM     37  O   UNL     1     -10.952  -6.123  -4.192  0.00  0.00    +0.000 OA
ATOM     38  O   UNL     1      -8.721  -5.323  -4.983  0.00  0.00    +0.000 OA
BRANCH  36  39
ATOM     39  N   UNL     1      -9.892  -7.317  -6.357  0.00  0.00    +0.000 NA
ATOM     40  H   UNL     1     -10.351  -6.655  -6.983  0.00  0.00    +0.000 HD
ATOM     41  H   UNL     1      -8.999  -7.603  -6.759  0.00  0.00    +0.000 HD
ENDBRANCH  36  39
ENDBRANCH  33  36
ENDBRANCH  29  30
ENDBRANCH  28  29
ENDBRANCH  27  28
ENDBRANCH  25  27
ENDBRANCH  22  23
ENDBRANCH   7  22
TORSDOF 10
