REMARK  Name = 
REMARK  7 active torsions:
REMARK  status: ('A' for Active; 'I' for Inactive)
REMARK    1  A    between atoms: C_1  and  O_2
REMARK    2  A    between atoms: O_2  and  C_3
REMARK    3  A    between atoms: C_6  and  O_7
REMARK    4  A    between atoms: O_7  and  C_8
REMARK    5  A    between atoms: C_8  and  C_9
REMARK    6  A    between atoms: C_9  and  C_11
REMARK    7  A    between atoms: C_12  and  O_13
REMARK                            x       y       z     vdW  Elec       q    Type
REMARK                         _______ _______ _______ _____ _____    ______ ____
ROOT
ATOM      1  C   UNL     1       0.057   5.259  -3.770  0.00  0.00    +0.000 A 
ATOM      2  C   UNL     1       1.258   4.771  -4.399  0.00  0.00    +0.000 A 
ATOM      3  C   UNL     1       2.152   5.690  -5.055  0.00  0.00    +0.000 A 
ATOM      4  C   UNL     1       3.352   5.202  -5.684  0.00  0.00    +0.000 A 
ATOM      5  C   UNL     1       3.658   3.795  -5.657  0.00  0.00    +0.000 A 
ATOM      6  C   UNL     1       4.858   3.307  -6.286  0.00  0.00    +0.000 A 
ATOM      7  C   UNL     1       5.164   1.900  -6.259  0.00  0.00    +0.000 A 
ATOM      8  C   UNL     1       1.846   7.097  -5.081  0.00  0.00    +0.000 A 
ATOM      9  O   UNL     1       0.724   7.553  -4.494  0.00  0.00    +0.000 OA
ATOM     10  C   UNL     1      -0.249   6.666  -3.797  0.00  0.00    +0.000 A 
ATOM     11  O   UNL     1      -1.308   7.096  -3.242  0.00  0.00    +0.000 OA
ENDROOT
BRANCH   1  12
ATOM     12  C   UNL     1      -0.886   4.289  -3.078  0.00  0.00    +0.000 C 
ATOM     13  O   UNL     1      -0.616   3.047  -3.054  0.00  0.00    +0.000 OA
BRANCH  12  14
ATOM     14  C   UNL     1      -2.153   4.804  -2.414  0.00  0.00    +0.000 C 
BRANCH  14  15
ATOM     15  O   UNL     1      -1.810   5.733  -1.397  0.00  0.00    +0.000 OA
BRANCH  15  19
ATOM     16  C   UNL     1       0.795   2.201   0.939  0.00  0.00    +0.000 A 
ATOM     17  C   UNL     1       0.315   3.557   0.867  0.00  0.00    +0.000 A 
ATOM     18  C   UNL     1      -0.513   3.970  -0.237  0.00  0.00    +0.000 A 
ATOM     19  C   UNL     1      -0.993   5.326  -0.309  0.00  0.00    +0.000 A 
ATOM     20  C   UNL     1      -0.646   6.269   0.723  0.00  0.00    +0.000 A 
ATOM     21  C   UNL     1       1.623   1.788   2.042  0.00  0.00    +0.000 A 
BRANCH  16  23
ATOM     22  C   UNL     1       0.925  -0.066  -0.007  0.00  0.00    +0.000 C 
ATOM     23  O   UNL     1       0.452   1.271  -0.078  0.00  0.00    +0.000 OA
ENDBRANCH  16  23
ENDBRANCH  15  19
ENDBRANCH  14  15
ENDBRANCH  12  14
ENDBRANCH   1  12
BRANCH   2  24
ATOM     24  O   UNL     1       1.559   3.383  -4.373  0.00  0.00    +0.000 OA
ATOM     25  H   UNL     1       0.939   2.745  -3.917  0.00  0.00    +0.000 HD
ENDBRANCH   2  24
TORSDOF 6
