REMARK  Name = 
REMARK  6 active torsions:
REMARK  status: ('A' for Active; 'I' for Inactive)
REMARK    1  A    between atoms: C_1  and  O_2
REMARK    2  A    between atoms: O_2  and  C_3
REMARK    3  A    between atoms: C_6  and  C_7
REMARK    4  A    between atoms: C_7  and  N_9
REMARK    5  A    between atoms: N_14  and  O_15
REMARK    6  A    between atoms: C_21  and  C_22
REMARK                            x       y       z     vdW  Elec       q    Type
REMARK                         _______ _______ _______ _____ _____    ______ ____
ROOT
ATOM      1  C   UNL     1       0.809   2.168   0.990  0.00  0.00    +0.000 A 
ATOM      2  C   UNL     1       0.329   3.526   0.980  0.00  0.00    +0.000 A 
ATOM      3  C   UNL     1      -0.499   3.990  -0.103  0.00  0.00    +0.000 A 
ATOM      4  C   UNL     1      -0.979   5.347  -0.113  0.00  0.00    +0.000 A 
ATOM      5  C   UNL     1      -0.631   6.242   0.961  0.00  0.00    +0.000 A 
ATOM      6  C   UNL     1      -1.111   7.599   0.952  0.00  0.00    +0.000 A 
ATOM      7  C   UNL     1      -1.939   8.063  -0.131  0.00  0.00    +0.000 A 
ATOM      8  N   UNL     1      -2.275   7.198  -1.170  0.00  0.00    +0.000 NA
ATOM      9  N   UNL     1       0.170   5.793   2.009  0.00  0.00    +0.000 N 
ENDROOT
BRANCH   1  11
ATOM     10  C   UNL     1       0.940  -0.052  -0.060  0.00  0.00    +0.000 C 
ATOM     11  O   UNL     1       0.466   1.287  -0.069  0.00  0.00    +0.000 OA
ENDBRANCH   1  11
BRANCH   4  12
ATOM     12  C   UNL     1      -1.853   5.837  -1.256  0.00  0.00    +0.000 C 
ATOM     13  O   UNL     1      -2.276   7.035  -1.264  0.00  0.00    +0.000 OA
BRANCH  12  14
ATOM     14  N   UNL     1      -2.208   4.924  -2.352  0.00  0.00    +0.000 NA
ATOM     15  C   UNL     1      -2.964   5.347  -3.342  0.00  0.00    +0.000 A 
ATOM     16  C   UNL     1      -3.312   4.453  -4.416  0.00  0.00    +0.000 A 
ATOM     17 CL   UNL     1      -2.719   2.775  -4.404  0.00  0.00    +0.000 Cl
ATOM     18  C   UNL     1      -4.140   4.917  -5.499  0.00  0.00    +0.000 A 
ATOM     19  N   UNL     1      -4.604   6.230  -5.508  0.00  0.00    +0.000 N 
ATOM     20  C   UNL     1      -4.268   7.095  -4.470  0.00  0.00    +0.000 A 
ATOM     21  C   UNL     1      -3.444   6.705  -3.351  0.00  0.00    +0.000 A 
ATOM     22 CL   UNL     1      -3.014   7.810  -2.024  0.00  0.00    +0.000 Cl
BRANCH  19  23
ATOM     23  O   UNL     1      -5.392   6.671  -6.539  0.00  0.00    +0.000 OA
ATOM     24  H   UNL     1      -5.634   6.050  -7.285  0.00  0.00    +0.000 HD
ENDBRANCH  19  23
ENDBRANCH  12  14
ENDBRANCH   4  12
BRANCH   7  25
ATOM     25  C   UNL     1      -2.446   9.496  -0.141  0.00  0.00    +0.000 C 
ATOM     26  N   UNL     1      -2.866  10.685  -0.149  0.00  0.00    +0.000 NA
ENDBRANCH   7  25
TORSDOF 5
