REMARK  Name = 
REMARK  8 active torsions:
REMARK  status: ('A' for Active; 'I' for Inactive)
REMARK    1  A    between atoms: C_1  and  C_2
REMARK    2  A    between atoms: C_2  and  O_3
REMARK    3  A    between atoms: O_3  and  C_4
REMARK    4  A    between atoms: C_10  and  C_12
REMARK    5  A    between atoms: C_14  and  C_15
REMARK    6  A    between atoms: C_18  and  O_19
REMARK    7  A    between atoms: O_19  and  C_20
REMARK    8  A    between atoms: C_20  and  C_21
REMARK                            x       y       z     vdW  Elec       q    Type
REMARK                         _______ _______ _______ _____ _____    ______ ____
ROOT
ATOM      1  C   UNL     1       7.300  -0.033  -2.838  0.00  0.00    +0.000 A 
ATOM      2  C   UNL     1       8.420   0.752  -2.386  0.00  0.00    +0.000 A 
ATOM      3  C   UNL     1       8.196   1.984  -1.676  0.00  0.00    +0.000 A 
ATOM      4  N   UNL     1       6.897   2.418  -1.426  0.00  0.00    +0.000 NA
ATOM      5  C   UNL     1       6.680   3.610  -0.739  0.00  0.00    +0.000 A 
ATOM      6  C   UNL     1       5.336   4.059  -0.481  0.00  0.00    +0.000 A 
ATOM      7  C   UNL     1       4.216   3.274  -0.933  0.00  0.00    +0.000 A 
ATOM      8  C   UNL     1       2.872   3.723  -0.674  0.00  0.00    +0.000 A 
ATOM      9  C   UNL     1       1.752   2.938  -1.126  0.00  0.00    +0.000 A 
ATOM     10  C   UNL     1       7.800   4.395  -0.287  0.00  0.00    +0.000 A 
ENDROOT
BRANCH   1  17
ATOM     11  C   UNL     1       2.402  -1.334  -2.155  0.00  0.00    +0.000 C 
ATOM     12  O   UNL     1       3.228  -0.497  -1.673  0.00  0.00    +0.000 OA
ATOM     13  N   UNL     1       2.892  -2.535  -2.847  0.00  0.00    +0.000 N 
ATOM     14  C   UNL     1       4.338  -2.768  -2.981  0.00  0.00    +0.000 C 
ATOM     15  C   UNL     1       4.967  -1.619  -3.751  0.00  0.00    +0.000 C 
ATOM     16  N   UNL     1       4.738  -0.360  -3.026  0.00  0.00    +0.000 N 
ATOM     17  C   UNL     1       5.882   0.440  -2.565  0.00  0.00    +0.000 C 
ATOM     18  O   UNL     1       5.684   1.528  -1.938  0.00  0.00    +0.000 OA
ATOM     19  C   UNL     1       3.366   0.097  -2.762  0.00  0.00    +0.000 C 
ATOM     20  C   UNL     1       1.937  -3.504  -3.405  0.00  0.00    +0.000 C 
BRANCH  11  21
ATOM     21  O   UNL     1       1.006  -1.110  -2.026  0.00  0.00    +0.000 OA
BRANCH  21  23
ATOM     22  C   UNL     1       1.040   0.052   0.076  0.00  0.00    +0.000 C 
ATOM     23  C   UNL     1       0.533   0.050  -1.357  0.00  0.00    +0.000 C 
ENDBRANCH  21  23
ENDBRANCH  11  21
ENDBRANCH   1  17
BRANCH   3  24
ATOM     24  C   UNL     1       9.379   2.812  -1.199  0.00  0.00    +0.000 A 
ATOM     25  C   UNL     1      10.723   2.364  -1.457  0.00  0.00    +0.000 A 
ATOM     26  C   UNL     1      10.946   1.131  -2.167  0.00  0.00    +0.000 A 
ATOM     27  C   UNL     1      12.290   0.683  -2.425  0.00  0.00    +0.000 A 
ATOM     28  C   UNL     1      13.411   1.467  -1.974  0.00  0.00    +0.000 A 
ATOM     29  C   UNL     1       9.155   4.045  -0.489  0.00  0.00    +0.000 A 
BRANCH  27  30
ATOM     30  O   UNL     1      12.511  -0.533  -3.126  0.00  0.00    +0.000 OA
BRANCH  30  31
ATOM     31  C   UNL     1      11.407  -1.306  -3.571  0.00  0.00    +0.000 C 
ATOM     32  C   UNL     1      10.562  -1.719  -2.376  0.00  0.00    +0.000 C 
ENDBRANCH  30  31
ENDBRANCH  27  30
ENDBRANCH   3  24
TORSDOF 6
