REMARK  Name = 
REMARK  6 active torsions:
REMARK  status: ('A' for Active; 'I' for Inactive)
REMARK    1  A    between atoms: C_2  and  C_17
REMARK    2  A    between atoms: N_3  and  N_4
REMARK    3  A    between atoms: N_4  and  C_5
REMARK    4  A    between atoms: C_5  and  N_7
REMARK    5  A    between atoms: C_8  and  C_10
REMARK    6  A    between atoms: C_21  and  N_22
REMARK                            x       y       z     vdW  Elec       q    Type
REMARK                         _______ _______ _______ _____ _____    ______ ____
ROOT
ATOM      1  N   UNL     1       4.359   0.681   1.158  0.00  0.00    +0.000 N 
ATOM      2  H   UNL     1       4.869   0.219   0.405  0.00  0.00    +0.000 HD
ENDROOT
BRANCH   1   5
ATOM      3  O   UNL     1       0.933   0.015   0.073  0.00  0.00    +0.000 OA
ATOM      4  C   UNL     1       2.204   0.015   0.073  0.00  0.00    +0.000 C 
ATOM      5  N   UNL     1       2.939   0.681   1.158  0.00  0.00    +0.000 N 
ATOM      6  H   UNL     1       2.429   1.143   1.911  0.00  0.00    +0.000 HD
BRANCH   4   7
ATOM      7  C   UNL     1       2.964  -0.673  -1.049  0.00  0.00    +0.000 A 
ATOM      8  C   UNL     1       4.404  -0.673  -1.049  0.00  0.00    +0.000 A 
ATOM      9  C   UNL     1       5.124  -0.021   0.014  0.00  0.00    +0.000 A 
ATOM     10  C   UNL     1       6.564  -0.021   0.014  0.00  0.00    +0.000 A 
ATOM     11  C   UNL     1       7.285   0.631   1.077  0.00  0.00    +0.000 A 
ATOM     12  C   UNL     1       2.244  -1.326  -2.112  0.00  0.00    +0.000 A 
BRANCH  11  13
ATOM     13  N   UNL     1       6.550   1.297   2.162  0.00  0.00    +0.000 N 
ATOM     14  O   UNL     1       5.323   1.297   2.162  0.00  0.00    +0.000 OA
ATOM     15  O   UNL     1       7.235   1.918   3.173  0.00  0.00    +0.000 OA
ENDBRANCH  11  13
ENDBRANCH   4   7
ENDBRANCH   1   5
BRANCH   1  16
ATOM     16  C   UNL     1       5.094   1.347   2.243  0.00  0.00    +0.000 C 
ATOM     17  S   UNL     1       6.714   1.347   2.243  0.00  0.00    +0.000 S 
BRANCH  16  18
ATOM     18  N   UNL     1       4.359   2.013   3.328  0.00  0.00    +0.000 N 
ATOM     19  C   UNL     1       2.889   2.013   3.328  0.00  0.00    +0.000 C 
ATOM     20  O   UNL     1       2.253   2.588   4.266  0.00  0.00    +0.000 OA
ATOM     21  H   UNL     1       4.869   2.475   4.081  0.00  0.00    +0.000 HD
BRANCH  19  22
ATOM     22  C   UNL     1       2.129   1.324   2.206  0.00  0.00    +0.000 A 
ATOM     23  C   UNL     1       0.689   1.324   2.206  0.00  0.00    +0.000 A 
ATOM     24  C   UNL     1      -0.031   1.976   3.269  0.00  0.00    +0.000 A 
ATOM     25  C   UNL     1      -1.472   1.976   3.269  0.00  0.00    +0.000 A 
ATOM     26  C   UNL     1      -2.192   2.629   4.332  0.00  0.00    +0.000 A 
ATOM     27  C   UNL     1       2.849   0.672   1.143  0.00  0.00    +0.000 A 
ATOM     28 CL   UNL     1       4.629   0.672   1.143  0.00  0.00    +0.000 Cl
ENDBRANCH  19  22
ENDBRANCH  16  18
ENDBRANCH   1  16
TORSDOF 6
