REMARK  Name = 
REMARK  11 active torsions:
REMARK  status: ('A' for Active; 'I' for Inactive)
REMARK    1  A    between atoms: C_1  and  O_2
REMARK    2  A    between atoms: O_2  and  C_3
REMARK    3  A    between atoms: C_6  and  C_7
REMARK    4  A    between atoms: C_9  and  C_10
REMARK    5  A    between atoms: C_10  and  N_11
REMARK    6  A    between atoms: N_11  and  S_12
REMARK    7  A    between atoms: S_12  and  C_15
REMARK    8  A    between atoms: C_18  and  O_19
REMARK    9  A    between atoms: O_19  and  C_20
REMARK   10  A    between atoms: C_21  and  O_22
REMARK   11  A    between atoms: O_22  and  C_23
REMARK                            x       y       z     vdW  Elec       q    Type
REMARK                         _______ _______ _______ _____ _____    ______ ____
ROOT
ATOM      1  N   UNL     1      -2.920   6.545  -5.980  0.00  0.00    +0.000 NA
ATOM      2  H   UNL     1      -1.900   6.545  -5.980  0.00  0.00    +0.000 HD
ENDROOT
BRANCH   1   3
ATOM      3  S   UNL     1      -3.507   8.163  -6.346  0.00  0.00    +0.000 S 
ATOM      4  O   UNL     1      -2.997   9.142  -5.286  0.00  0.00    +0.000 OA
ATOM      5  O   UNL     1      -2.997   8.592  -7.724  0.00  0.00    +0.000 OA
BRANCH   3   6
ATOM      6  C   UNL     1      -5.317   8.163  -6.346  0.00  0.00    +0.000 A 
ATOM      7  C   UNL     1      -6.037   9.380  -6.621  0.00  0.00    +0.000 A 
ATOM      8  C   UNL     1      -5.317  10.597  -6.895  0.00  0.00    +0.000 A 
ATOM      9  C   UNL     1      -6.037  11.813  -7.170  0.00  0.00    +0.000 A 
ATOM     10  C   UNL     1      -7.477  11.813  -7.170  0.00  0.00    +0.000 A 
ATOM     11  C   UNL     1      -6.037   6.947  -6.071  0.00  0.00    +0.000 A 
BRANCH   9  12
ATOM     12  O   UNL     1      -5.327  13.013  -7.441  0.00  0.00    +0.000 OA
ATOM     13  C   UNL     1      -3.907  13.013  -7.441  0.00  0.00    +0.000 C 
ENDBRANCH   9  12
BRANCH  10  14
ATOM     14  O   UNL     1      -8.187  13.013  -7.441  0.00  0.00    +0.000 OA
ATOM     15  C   UNL     1      -9.607  13.013  -7.441  0.00  0.00    +0.000 C 
ENDBRANCH  10  14
ENDBRANCH   3   6
ENDBRANCH   1   3
BRANCH   1  16
ATOM     16  C   UNL     1      -3.410   6.133  -4.657  0.00  0.00    +0.000 C 
BRANCH  16  19
ATOM     17  C   UNL     1      -1.766   5.588  -2.392  0.00  0.00    +0.000 A 
ATOM     18  N   UNL     1      -2.103   4.521  -3.222  0.00  0.00    +0.000 NA
ATOM     19  C   UNL     1      -2.903   4.735  -4.341  0.00  0.00    +0.000 A 
ATOM     20  C   UNL     1      -3.251   3.632  -5.199  0.00  0.00    +0.000 A 
ATOM     21  S   UNL     1      -2.338   7.165  -2.748  0.00  0.00    +0.000 S 
BRANCH  17  25
ATOM     22  C   UNL     1       0.896   2.484   0.585  0.00  0.00    +0.000 A 
ATOM     23  C   UNL     1       0.416   3.808   0.286  0.00  0.00    +0.000 A 
ATOM     24  C   UNL     1      -0.412   4.030  -0.871  0.00  0.00    +0.000 A 
ATOM     25  C   UNL     1      -0.892   5.354  -1.170  0.00  0.00    +0.000 A 
ATOM     26  C   UNL     1      -0.544   6.457  -0.312  0.00  0.00    +0.000 A 
ATOM     27  C   UNL     1       1.724   2.262   1.743  0.00  0.00    +0.000 A 
BRANCH  22  29
ATOM     28  C   UNL     1       1.026   0.090   0.034  0.00  0.00    +0.000 C 
ATOM     29  O   UNL     1       0.553   1.396  -0.261  0.00  0.00    +0.000 OA
ENDBRANCH  22  29
ENDBRANCH  17  25
ENDBRANCH  16  19
ENDBRANCH   1  16
TORSDOF 8
