REMARK  Name = 
REMARK  7 active torsions:
REMARK  status: ('A' for Active; 'I' for Inactive)
REMARK    1  A    between atoms: N_1  and  S_2
REMARK    2  A    between atoms: S_2  and  C_5
REMARK    3  A    between atoms: C_7  and  N_8
REMARK    4  A    between atoms: C_9  and  C_11
REMARK    5  A    between atoms: C_11  and  C_12
REMARK    6  A    between atoms: C_21  and  O_22
REMARK    7  A    between atoms: O_22  and  C_23
REMARK                            x       y       z     vdW  Elec       q    Type
REMARK                         _______ _______ _______ _____ _____    ______ ____
ROOT
ATOM      1  C   UNL     1       1.088  -0.489   2.827  0.00  0.00    +0.000 A 
ATOM      2  C   UNL     1       0.740  -0.240   4.202  0.00  0.00    +0.000 A 
ATOM      3  C   UNL     1      -0.088   0.888   4.543  0.00  0.00    +0.000 A 
ATOM      4  C   UNL     1      -0.568   1.767   3.509  0.00  0.00    +0.000 A 
ATOM      5  C   UNL     1      -0.220   1.519   2.134  0.00  0.00    +0.000 A 
ATOM      6  C   UNL     1       1.916  -1.616   2.486  0.00  0.00    +0.000 A 
ENDROOT
BRANCH   3   7
ATOM      7  N   UNL     1      -0.443   1.141   5.947  0.00  0.00    +0.000 N 
ATOM      8  C   UNL     1      -1.288   2.293   6.295  0.00  0.00    +0.000 C 
ATOM      9  O   UNL     1      -1.595   2.512   7.509  0.00  0.00    +0.000 OA
ATOM     10  H   UNL     1      -0.103   0.518   6.680  0.00  0.00    +0.000 HD
BRANCH   8  11
ATOM     11  C   UNL     1      -1.795   3.221   5.203  0.00  0.00    +0.000 C 
BRANCH  11  12
ATOM     12  C   UNL     1      -0.612   3.840   4.476  0.00  0.00    +0.000 A 
ATOM     13  C   UNL     1       0.340   4.642   5.200  0.00  0.00    +0.000 A 
ATOM     14  C   UNL     1       0.172   4.857   6.614  0.00  0.00    +0.000 A 
ATOM     15  C   UNL     1       1.124   5.659   7.339  0.00  0.00    +0.000 A 
ATOM     16  C   UNL     1       0.956   5.874   8.753  0.00  0.00    +0.000 A 
ATOM     17  C   UNL     1      -0.444   3.625   3.062  0.00  0.00    +0.000 A 
ATOM     18 CL   UNL     1      -1.621   2.634   2.166  0.00  0.00    +0.000 Cl
ENDBRANCH  11  12
ENDBRANCH   8  11
ENDBRANCH   3   7
BRANCH   1  19
ATOM     19  S   UNL     1       0.485   0.617   1.527  0.00  0.00    +0.000 S 
ATOM     20  O   UNL     1       0.995   2.036   1.787  0.00  0.00    +0.000 OA
ATOM     21  O   UNL     1      -1.046   0.617   1.527  0.00  0.00    +0.000 OA
BRANCH  19  22
ATOM     22  N   UNL     1       1.072   0.060  -0.036  0.00  0.00    +0.000 NA
ATOM     23  H   UNL     1       0.732   0.683  -0.768  0.00  0.00    +0.000 HD
ATOM     24  H   UNL     1       2.092   0.060  -0.036  0.00  0.00    +0.000 HD
ENDBRANCH  19  22
ENDBRANCH   1  19
BRANCH   6  25
ATOM     25  O   UNL     1       2.259  -1.861   1.130  0.00  0.00    +0.000 OA
BRANCH  25  26
ATOM     26  C   UNL     1       3.076  -2.973   0.794  0.00  0.00    +0.000 A 
ATOM     27  C   UNL     1       3.424  -3.222  -0.581  0.00  0.00    +0.000 A 
ATOM     28  C   UNL     1       2.944  -2.342  -1.616  0.00  0.00    +0.000 A 
ATOM     29  C   UNL     1       3.291  -2.590  -2.991  0.00  0.00    +0.000 A 
ATOM     30  N   UNL     1       2.827  -1.740  -3.991  0.00  0.00    +0.000 NA
ATOM     31  C   UNL     1       3.556  -3.853   1.828  0.00  0.00    +0.000 A 
ENDBRANCH  25  26
ENDBRANCH   6  25
TORSDOF 7
