REMARK  Name = 
REMARK  15 active torsions:
REMARK  status: ('A' for Active; 'I' for Inactive)
REMARK    1  A    between atoms: C_1  and  C_2
REMARK    2  A    between atoms: C_2  and  C_3
REMARK    3  A    between atoms: C_3  and  C_4
REMARK    4  A    between atoms: C_4  and  C_5
REMARK    5  A    between atoms: C_5  and  C_6
REMARK    6  A    between atoms: C_6  and  C_7
REMARK    7  A    between atoms: C_7  and  C_8
REMARK    8  A    between atoms: C_8  and  C_9
REMARK    9  A    between atoms: C_12  and  O_13
REMARK   10  A    between atoms: O_13  and  C_14
REMARK   11  A    between atoms: C_14  and  C_15
REMARK   12  A    between atoms: C_15  and  C_17
REMARK   13  A    between atoms: C_17  and  N_18
REMARK   14  A    between atoms: C_24  and  C_25
REMARK   15  A    between atoms: C_25  and  O_27
REMARK                            x       y       z     vdW  Elec       q    Type
REMARK                         _______ _______ _______ _____ _____    ______ ____
ROOT
ATOM      1  C   UNL     1      -1.204   0.614  -1.907  0.00  0.00    +0.000 C 
ATOM      2  O   UNL     1      -0.473   1.548  -2.363  0.00  0.00    +0.000 OA
ENDROOT
BRANCH   1   3
ATOM      3  C   UNL     1      -1.710   0.675  -0.475  0.00  0.00    +0.000 C 
BRANCH   3   4
ATOM      4  O   UNL     1      -3.130   0.675  -0.475  0.00  0.00    +0.000 OA
BRANCH   4   8
ATOM      5  C   UNL     1      -3.120   4.870  -3.142  0.00  0.00    +0.000 A 
ATOM      6  C   UNL     1      -3.840   3.818  -2.473  0.00  0.00    +0.000 A 
ATOM      7  C   UNL     1      -3.120   2.765  -1.804  0.00  0.00    +0.000 A 
ATOM      8  C   UNL     1      -3.840   1.712  -1.135  0.00  0.00    +0.000 A 
ATOM      9  C   UNL     1      -5.281   1.712  -1.135  0.00  0.00    +0.000 A 
ATOM     10  C   UNL     1      -3.840   5.923  -3.811  0.00  0.00    +0.000 A 
BRANCH   5  11
ATOM     11  C   UNL     1      -1.600   4.870  -3.142  0.00  0.00    +0.000 C 
BRANCH  11  12
ATOM     12  C   UNL     1      -1.094   4.931  -1.710  0.00  0.00    +0.000 C 
BRANCH  12  13
ATOM     13  C   UNL     1      -1.600   3.722  -0.941  0.00  0.00    +0.000 C 
BRANCH  13  14
ATOM     14  C   UNL     1      -1.094   2.451  -1.604  0.00  0.00    +0.000 C 
BRANCH  14  15
ATOM     15  C   UNL     1       0.426   2.451  -1.604  0.00  0.00    +0.000 C 
BRANCH  15  16
ATOM     16  C   UNL     1       0.933   2.512  -0.173  0.00  0.00    +0.000 C 
BRANCH  16  18
ATOM     17  C   UNL     1       0.933   0.033  -0.067  0.00  0.00    +0.000 C 
ATOM     18  C   UNL     1       0.426   1.303   0.596  0.00  0.00    +0.000 C 
ENDBRANCH  16  18
ENDBRANCH  15  16
ENDBRANCH  14  15
ENDBRANCH  13  14
ENDBRANCH  12  13
ENDBRANCH  11  12
ENDBRANCH   5  11
ENDBRANCH   4   8
ENDBRANCH   3   4
ENDBRANCH   1   3
BRANCH   1  19
ATOM     19  C   UNL     1      -1.571  -0.565  -2.793  0.00  0.00    +0.000 C 
BRANCH  19  20
ATOM     20  N   UNL     1      -1.073  -1.808  -2.187  0.00  0.00    +0.000 N 
ATOM     21  C   UNL     1       0.291  -1.973  -1.956  0.00  0.00    +0.000 A 
ATOM     22  C   UNL     1       1.213  -0.925  -2.312  0.00  0.00    +0.000 A 
ATOM     23 CL   UNL     1       2.956  -1.135  -2.017  0.00  0.00    +0.000 Cl
ATOM     24  C   UNL     1       0.725   0.293  -2.906  0.00  0.00    +0.000 A 
ATOM     25  C   UNL     1       1.647   1.341  -3.261  0.00  0.00    +0.000 A 
ATOM     26  C   UNL     1       3.057   1.171  -3.023  0.00  0.00    +0.000 A 
ATOM     27  C   UNL     1       3.545  -0.047  -2.429  0.00  0.00    +0.000 A 
ATOM     28  C   UNL     1       2.623  -1.095  -2.073  0.00  0.00    +0.000 A 
ATOM     29  C   UNL     1      -1.964  -2.822  -1.843  0.00  0.00    +0.000 A 
BRANCH  26  30
ATOM     30  C   UNL     1       4.030   2.276  -3.398  0.00  0.00    +0.000 C 
ATOM     31  O   UNL     1       5.274   2.126  -3.187  0.00  0.00    +0.000 OA
BRANCH  30  32
ATOM     32  O   UNL     1       3.549   3.477  -3.984  0.00  0.00    +0.000 OA
ATOM     33  H   UNL     1       4.189   4.205  -4.230  0.00  0.00    +0.000 HD
ENDBRANCH  30  32
ENDBRANCH  26  30
ENDBRANCH  19  20
ENDBRANCH   1  19
TORSDOF 14
