REMARK  Name = 
REMARK  10 active torsions:
REMARK  status: ('A' for Active; 'I' for Inactive)
REMARK    1  A    between atoms: C_1  and  O_2
REMARK    2  A    between atoms: O_2  and  C_3
REMARK    3  A    between atoms: C_5  and  O_6
REMARK    4  A    between atoms: O_6  and  C_7
REMARK    5  A    between atoms: C_9  and  C_10
REMARK    6  A    between atoms: C_13  and  C_14
REMARK    7  A    between atoms: N_16  and  C_17
REMARK    8  A    between atoms: C_17  and  C_18
REMARK    9  A    between atoms: C_18  and  C_19
REMARK   10  A    between atoms: C_20  and  C_21
REMARK                            x       y       z     vdW  Elec       q    Type
REMARK                         _______ _______ _______ _____ _____    ______ ____
ROOT
ATOM      1  C   UNL     1       0.822  -2.057  -3.199  0.00  0.00    +0.000 C 
ATOM      2  O   UNL     1       1.245  -3.159  -3.669  0.00  0.00    +0.000 OA
ATOM      3  N   UNL     1      -0.024  -1.182  -4.024  0.00  0.00    +0.000 N 
ATOM      4  H   UNL     1      -0.270  -1.460  -4.974  0.00  0.00    +0.000 HD
ENDROOT
BRANCH   1   8
ATOM      5  C   UNL     1       0.577   1.247   0.624  0.00  0.00    +0.000 A 
ATOM      6  C   UNL     1       1.057  -0.002   0.091  0.00  0.00    +0.000 A 
ATOM      7  C   UNL     1       0.709  -0.394  -1.250  0.00  0.00    +0.000 A 
ATOM      8  C   UNL     1       1.189  -1.643  -1.783  0.00  0.00    +0.000 A 
ATOM      9  C   UNL     1       2.017  -2.500  -0.974  0.00  0.00    +0.000 A 
ATOM     10  N   UNL     1       0.913   1.626   1.921  0.00  0.00    +0.000 NA
BRANCH   5  15
ATOM     11  C   UNL     1       0.879   1.686   1.920  0.00  0.00    +0.000 A 
ATOM     12  C   UNL     1       0.398   2.935   2.453  0.00  0.00    +0.000 A 
ATOM     13  C   UNL     1      -0.430   3.792   1.644  0.00  0.00    +0.000 A 
ATOM     14  C   UNL     1      -0.777   3.400   0.302  0.00  0.00    +0.000 A 
ATOM     15  C   UNL     1      -0.297   2.151  -0.230  0.00  0.00    +0.000 A 
ATOM     16  C   UNL     1       1.707   0.829   2.729  0.00  0.00    +0.000 A 
BRANCH  11  18
ATOM     17  C   UNL     1       1.009   0.068   0.072  0.00  0.00    +0.000 C 
ATOM     18  O   UNL     1       0.536   1.300   0.598  0.00  0.00    +0.000 OA
ENDBRANCH  11  18
BRANCH  13  19
ATOM     19  O   UNL     1      -0.903   5.024   2.169  0.00  0.00    +0.000 OA
ATOM     20  C   UNL     1      -0.560   5.411   3.492  0.00  0.00    +0.000 C 
ENDBRANCH  13  19
ENDBRANCH   5  15
ENDBRANCH   1   8
BRANCH   3  21
ATOM     21  C   UNL     1      -0.514   0.093  -3.481  0.00  0.00    +0.000 C 
BRANCH  21  22
ATOM     22  C   UNL     1      -0.007   1.239  -4.341  0.00  0.00    +0.000 C 
BRANCH  22  23
ATOM     23  C   UNL     1      -0.514   1.066  -5.764  0.00  0.00    +0.000 A 
ATOM     24  C   UNL     1      -0.166  -0.113  -6.514  0.00  0.00    +0.000 A 
ATOM     25  C   UNL     1       0.708  -1.185  -5.884  0.00  0.00    +0.000 C 
ATOM     26  N   UNL     1      -0.630  -0.271  -7.818  0.00  0.00    +0.000 N 
ATOM     27  C   UNL     1      -1.431   0.712  -8.396  0.00  0.00    +0.000 A 
ATOM     28  C   UNL     1      -1.779   1.891  -7.646  0.00  0.00    +0.000 A 
ATOM     29  C   UNL     1      -1.299   2.054  -6.298  0.00  0.00    +0.000 A 
ATOM     30  C   UNL     1      -1.647   3.233  -5.547  0.00  0.00    +0.000 A 
ATOM     31  C   UNL     1      -1.166   3.396  -4.199  0.00  0.00    +0.000 A 
ATOM     32  C   UNL     1      -1.911   0.548  -9.744  0.00  0.00    +0.000 A 
ATOM     33  H   UNL     1      -0.384  -1.106  -8.350  0.00  0.00    +0.000 HD
ENDBRANCH  22  23
ENDBRANCH  21  22
ENDBRANCH   3  21
TORSDOF 7
