REMARK  Name = 
REMARK  9 active torsions:
REMARK  status: ('A' for Active; 'I' for Inactive)
REMARK    1  A    between atoms: C_1  and  C_2
REMARK    2  A    between atoms: C_5  and  C_6
REMARK    3  A    between atoms: C_6  and  O_7
REMARK    4  A    between atoms: C_13  and  C_14
REMARK    5  A    between atoms: C_22  and  S_23
REMARK    6  A    between atoms: S_23  and  C_24
REMARK    7  A    between atoms: C_24  and  C_25
REMARK    8  A    between atoms: N_27  and  C_28
REMARK    9  A    between atoms: N_27  and  C_29
REMARK                            x       y       z     vdW  Elec       q    Type
REMARK                         _______ _______ _______ _____ _____    ______ ____
ROOT
ATOM      1  C   UNL     1       0.982   0.022  -0.096  0.00  0.00    +0.000 C 
ATOM      2  C   UNL     1       0.475  -1.175   0.692  0.00  0.00    +0.000 A 
ATOM      3  N   UNL     1       0.811  -2.466   0.291  0.00  0.00    +0.000 NA
ATOM      4  C   UNL     1       0.347  -3.563   1.013  0.00  0.00    +0.000 A 
ATOM      5  C   UNL     1      -0.481  -3.362   2.174  0.00  0.00    +0.000 A 
ATOM      6  C   UNL     1      -0.829  -2.028   2.589  0.00  0.00    +0.000 A 
ATOM      7  C   UNL     1      -2.209  -0.442   1.814  0.00  0.00    +0.000 A 
ATOM      8  O   UNL     1      -3.463  -1.078   1.616  0.00  0.00    +0.000 OA
ATOM      9  C   UNL     1      -3.887  -2.102   2.503  0.00  0.00    +0.000 A 
ATOM     10  N   UNL     1      -5.117  -2.726   2.310  0.00  0.00    +0.000 NA
ATOM     11  C   UNL     1      -5.932  -2.345   1.246  0.00  0.00    +0.000 A 
ATOM     12  N   UNL     1      -7.162  -2.968   1.052  0.00  0.00    +0.000 NA
ATOM     13  C   UNL     1      -3.475  -3.536   4.503  0.00  0.00    +0.000 A 
ATOM     14  C   UNL     1      -3.045  -2.497   3.603  0.00  0.00    +0.000 A 
ATOM     15  C   UNL     1      -1.703  -1.816   3.815  0.00  0.00    +0.000 C 
ENDROOT
BRANCH  11  16
ATOM     16  C   UNL     1      -5.478  -1.248   0.296  0.00  0.00    +0.000 A 
ATOM     17  C   UNL     1      -4.206  -0.603   0.497  0.00  0.00    +0.000 A 
ATOM     18  C   UNL     1      -3.364  -0.997   1.597  0.00  0.00    +0.000 A 
ATOM     19  C   UNL     1      -2.092  -0.352   1.797  0.00  0.00    +0.000 A 
ATOM     20  C   UNL     1      -1.250  -0.747   2.897  0.00  0.00    +0.000 A 
ATOM     21  C   UNL     1      -6.320  -0.854  -0.804  0.00  0.00    +0.000 A 
ATOM     22  F   UNL     1      -7.494  -1.449  -0.989  0.00  0.00    +0.000 F 
ENDBRANCH  11  16
BRANCH   5  23
ATOM     23  C   UNL     1      -0.988  -4.559   2.962  0.00  0.00    +0.000 C 
BRANCH  23  24
ATOM     24  O   UNL     1      -0.514  -4.481   4.299  0.00  0.00    +0.000 OA
ATOM     25  H   UNL     1       0.486  -4.481   4.299  0.00  0.00    +0.000 HD
ENDBRANCH  23  24
ENDBRANCH   5  23
BRANCH  13  26
ATOM     26  S   UNL     1      -2.417  -4.031   5.885  0.00  0.00    +0.000 S 
BRANCH  26  27
ATOM     27  C   UNL     1      -3.229  -5.348   6.824  0.00  0.00    +0.000 C 
BRANCH  27  28
ATOM     28  C   UNL     1      -4.559  -4.843   7.360  0.00  0.00    +0.000 C 
ATOM     29  O   UNL     1      -5.640  -5.421   7.024  0.00  0.00    +0.000 OA
ATOM     30  N   UNL     1      -4.595  -3.687   8.267  0.00  0.00    +0.000 N 
ATOM     31  C   UNL     1      -3.344  -3.019   8.656  0.00  0.00    +0.000 C 
BRANCH  30  32
ATOM     32  C   UNL     1      -5.881  -3.198   8.785  0.00  0.00    +0.000 A 
ATOM     33  C   UNL     1      -5.915  -2.065   9.673  0.00  0.00    +0.000 A 
ATOM     34  C   UNL     1      -4.690  -1.411  10.054  0.00  0.00    +0.000 A 
ATOM     35  C   UNL     1      -4.725  -0.278  10.942  0.00  0.00    +0.000 A 
ATOM     36  C   UNL     1      -3.500   0.376  11.323  0.00  0.00    +0.000 A 
ATOM     37  C   UNL     1      -7.106  -3.853   8.404  0.00  0.00    +0.000 A 
ENDBRANCH  30  32
ENDBRANCH  27  28
ENDBRANCH  26  27
ENDBRANCH  13  26
TORSDOF 7
