REMARK  Name = 
REMARK  5 active torsions:
REMARK  status: ('A' for Active; 'I' for Inactive)
REMARK    1  A    between atoms: C_1  and  O_2
REMARK    2  A    between atoms: O_2  and  C_3
REMARK    3  A    between atoms: C_6  and  O_7
REMARK    4  A    between atoms: O_7  and  C_8
REMARK    5  A    between atoms: C_9  and  C_10
REMARK                            x       y       z     vdW  Elec       q    Type
REMARK                         _______ _______ _______ _____ _____    ______ ____
ROOT
ATOM      1  C   UNL     1      -1.015  -6.639   4.118  0.00  0.00    +0.000 A 
ATOM      2  C   UNL     1      -0.667  -8.014   3.866  0.00  0.00    +0.000 A 
ATOM      3  C   UNL     1       0.161  -8.352   2.737  0.00  0.00    +0.000 A 
ATOM      4  O   UNL     1       0.468  -9.565   2.514  0.00  0.00    +0.000 OA
ATOM      5  C   UNL     1       0.641  -7.315   1.860  0.00  0.00    +0.000 A 
ATOM      6  C   UNL     1       1.469  -7.653   0.731  0.00  0.00    +0.000 A 
ATOM      7  C   UNL     1       1.817  -9.027   0.479  0.00  0.00    +0.000 A 
ATOM      8  C   UNL     1       2.645  -9.365  -0.650  0.00  0.00    +0.000 A 
ATOM      9  O   UNL     1       3.093  -8.397  -1.469  0.00  0.00    +0.000 OA
ATOM     10  C   UNL     1       3.867  -8.712  -2.524  0.00  0.00    +0.000 A 
ATOM     11  C   UNL     1       4.215 -10.087  -2.776  0.00  0.00    +0.000 A 
ATOM     12  C   UNL     1       2.993 -10.740  -0.902  0.00  0.00    +0.000 A 
ATOM     13  C   UNL     1       0.293  -5.940   2.112  0.00  0.00    +0.000 A 
ATOM     14  O   UNL     1      -1.789  -6.324   5.173  0.00  0.00    +0.000 OA
ENDROOT
BRANCH   1  19
ATOM     15  C   UNL     1       0.932  -2.435   0.562  0.00  0.00    +0.000 A 
ATOM     16  C   UNL     1       0.452  -3.471   1.439  0.00  0.00    +0.000 A 
ATOM     17  C   UNL     1      -0.376  -3.134   2.568  0.00  0.00    +0.000 A 
ATOM     18  C   UNL     1      -0.856  -4.170   3.445  0.00  0.00    +0.000 A 
ATOM     19  C   UNL     1      -0.509  -5.545   3.193  0.00  0.00    +0.000 A 
ATOM     20  C   UNL     1       1.760  -2.772  -0.567  0.00  0.00    +0.000 A 
BRANCH  15  22
ATOM     21  C   UNL     1       1.062  -0.057  -0.054  0.00  0.00    +0.000 C 
ATOM     22  O   UNL     1       0.589  -1.079   0.811  0.00  0.00    +0.000 OA
ENDBRANCH  15  22
BRANCH  18  23
ATOM     23  O   UNL     1      -1.673  -3.837   4.558  0.00  0.00    +0.000 OA
ATOM     24  C   UNL     1      -2.016  -2.482   4.806  0.00  0.00    +0.000 C 
ENDBRANCH  18  23
ENDBRANCH   1  19
TORSDOF 3
