REMARK  Name = 
REMARK  17 active torsions:
REMARK  status: ('A' for Active; 'I' for Inactive)
REMARK    1  A    between atoms: C_1  and  O_2
REMARK    2  A    between atoms: O_2  and  C_3
REMARK    3  A    between atoms: C_7  and  O_8
REMARK    4  A    between atoms: C_9  and  C_10
REMARK    5  A    between atoms: C_10  and  C_12
REMARK    6  A    between atoms: C_13  and  C_14
REMARK    7  A    between atoms: C_17  and  O_18
REMARK    8  A    between atoms: C_23  and  C_24
REMARK    9  A    between atoms: C_23  and  C_25
REMARK   10  A    between atoms: C_25  and  C_26
REMARK   11  A    between atoms: C_26  and  C_27
REMARK   12  A    between atoms: C_28  and  C_29
REMARK   13  A    between atoms: C_28  and  C_30
REMARK   14  A    between atoms: C_30  and  C_31
REMARK   15  A    between atoms: C_31  and  C_32
REMARK   16  A    between atoms: C_33  and  C_34
REMARK   17  A    between atoms: C_33  and  C_35
REMARK                            x       y       z     vdW  Elec       q    Type
REMARK                         _______ _______ _______ _____ _____    ______ ____
ROOT
ATOM      1  C   UNL     1       0.941  -1.355  -1.967  0.00  0.00    +0.000 A 
ATOM      2  C   UNL     1       0.460  -2.528  -2.650  0.00  0.00    +0.000 A 
ATOM      3  C   UNL     1      -0.368  -3.479  -1.953  0.00  0.00    +0.000 A 
ATOM      4  C   UNL     1      -0.715  -3.256  -0.574  0.00  0.00    +0.000 A 
ATOM      5  C   UNL     1      -0.235  -2.082   0.109  0.00  0.00    +0.000 A 
ATOM      6  C   UNL     1       1.769  -0.404  -2.663  0.00  0.00    +0.000 A 
ATOM      7  C   UNL     1      -1.589  -4.259   0.162  0.00  0.00    +0.000 C 
ATOM      8  C   UNL     1      -2.043  -5.367  -0.484  0.00  0.00    +0.000 C 
ATOM      9  C   UNL     1      -2.917  -6.371   0.252  0.00  0.00    +0.000 C 
ATOM     10  C   UNL     1      -2.233  -7.728   0.260  0.00  0.00    +0.000 C 
ATOM     11  O   UNL     1      -0.841  -4.636  -2.627  0.00  0.00    +0.000 OA
ENDROOT
BRANCH   1  13
ATOM     12  C   UNL     1       1.071   0.022   0.067  0.00  0.00    +0.000 C 
ATOM     13  O   UNL     1       0.597  -1.135  -0.606  0.00  0.00    +0.000 OA
ENDBRANCH   1  13
BRANCH   5  14
ATOM     14  O   UNL     1       0.581  -1.145  -0.577  0.00  0.00    +0.000 OA
ATOM     15  H   UNL     1       0.914  -0.330  -0.103  0.00  0.00    +0.000 HD
ENDBRANCH   5  14
BRANCH   6  16
ATOM     16  C   UNL     1       2.275   0.834  -1.942  0.00  0.00    +0.000 C 
ATOM     17  O   UNL     1       1.968   1.031  -0.725  0.00  0.00    +0.000 OA
BRANCH  16  18
ATOM     18  C   UNL     1       3.149   1.837  -2.678  0.00  0.00    +0.000 C 
ATOM     19  C   UNL     1       3.478   1.627  -3.981  0.00  0.00    +0.000 C 
BRANCH  19  20
ATOM     20  C   UNL     1       4.352   2.630  -4.716  0.00  0.00    +0.000 A 
ATOM     21  C   UNL     1       4.832   3.803  -4.033  0.00  0.00    +0.000 A 
ATOM     22  C   UNL     1       4.484   4.026  -2.653  0.00  0.00    +0.000 A 
ATOM     23  C   UNL     1       4.964   5.200  -1.970  0.00  0.00    +0.000 A 
ATOM     24  C   UNL     1       5.792   6.150  -2.667  0.00  0.00    +0.000 A 
ATOM     25  C   UNL     1       4.699   2.407  -6.095  0.00  0.00    +0.000 A 
BRANCH  23  26
ATOM     26  O   UNL     1       4.621   5.420  -0.610  0.00  0.00    +0.000 OA
ATOM     27  H   UNL     1       4.046   4.760  -0.126  0.00  0.00    +0.000 HD
ENDBRANCH  23  26
ENDBRANCH  19  20
ENDBRANCH  16  18
ENDBRANCH   6  16
BRANCH   9  28
ATOM     28  C   UNL     1      -3.132  -5.903   1.682  0.00  0.00    +0.000 C 
BRANCH  28  29
ATOM     29  C   UNL     1      -1.789  -5.789   2.385  0.00  0.00    +0.000 C 
BRANCH  29  30
ATOM     30  C   UNL     1      -0.916  -4.786   1.650  0.00  0.00    +0.000 C 
ATOM     31  C   UNL     1      -0.462  -3.677   2.295  0.00  0.00    +0.000 C 
ATOM     32  C   UNL     1      -0.829  -3.442   3.751  0.00  0.00    +0.000 C 
BRANCH  31  33
ATOM     33  C   UNL     1       0.412  -2.674   1.560  0.00  0.00    +0.000 C 
BRANCH  33  34
ATOM     34  C   UNL     1       1.678  -3.363   1.079  0.00  0.00    +0.000 C 
BRANCH  34  35
ATOM     35  C   UNL     1       1.311  -4.499   0.139  0.00  0.00    +0.000 C 
ATOM     36  C   UNL     1       1.765  -4.495  -1.144  0.00  0.00    +0.000 C 
ATOM     37  C   UNL     1       1.397  -5.631  -2.084  0.00  0.00    +0.000 C 
ATOM     38  C   UNL     1       2.639  -3.353  -1.637  0.00  0.00    +0.000 C 
ENDBRANCH  34  35
ENDBRANCH  33  34
ENDBRANCH  31  33
ENDBRANCH  29  30
ENDBRANCH  28  29
ENDBRANCH   9  28
TORSDOF 12
