REMARK  Name = 
REMARK  7 active torsions:
REMARK  status: ('A' for Active; 'I' for Inactive)
REMARK    1  A    between atoms: N_1  and  S_2
REMARK    2  A    between atoms: S_2  and  C_5
REMARK    3  A    between atoms: C_7  and  N_8
REMARK    4  A    between atoms: C_9  and  C_11
REMARK    5  A    between atoms: C_11  and  C_12
REMARK    6  A    between atoms: C_21  and  O_22
REMARK    7  A    between atoms: O_22  and  C_23
REMARK                            x       y       z     vdW  Elec       q    Type
REMARK                         _______ _______ _______ _____ _____    ______ ____
ROOT
ATOM      1  C   UNL     1       0.982  -2.709  -1.154  0.00  0.00    +0.000 A 
ATOM      2  C   UNL     1       0.634  -4.103  -1.245  0.00  0.00    +0.000 A 
ATOM      3  C   UNL     1      -0.194  -4.706  -0.233  0.00  0.00    +0.000 A 
ATOM      4  C   UNL     1      -0.674  -3.915   0.871  0.00  0.00    +0.000 A 
ATOM      5  C   UNL     1      -0.326  -2.521   0.962  0.00  0.00    +0.000 A 
ATOM      6  C   UNL     1       1.810  -2.105  -2.166  0.00  0.00    +0.000 A 
ENDROOT
BRANCH   3   7
ATOM      7  N   UNL     1      -0.549  -6.130  -0.326  0.00  0.00    +0.000 N 
ATOM      8  C   UNL     1      -1.394  -6.746   0.707  0.00  0.00    +0.000 C 
ATOM      9  O   UNL     1      -1.701  -7.976   0.627  0.00  0.00    +0.000 OA
ATOM     10  H   UNL     1      -0.209  -6.690  -1.108  0.00  0.00    +0.000 HD
BRANCH   8  11
ATOM     11  C   UNL     1      -1.901  -5.911   1.872  0.00  0.00    +0.000 C 
BRANCH  11  12
ATOM     12  C   UNL     1      -0.718  -5.354   2.648  0.00  0.00    +0.000 A 
ATOM     13  C   UNL     1       0.234  -6.251   3.251  0.00  0.00    +0.000 A 
ATOM     14  C   UNL     1       0.066  -7.675   3.119  0.00  0.00    +0.000 A 
ATOM     15  C   UNL     1       1.018  -8.571   3.722  0.00  0.00    +0.000 A 
ATOM     16  C   UNL     1       0.850  -9.996   3.589  0.00  0.00    +0.000 A 
ATOM     17  C   UNL     1      -0.550  -3.930   2.781  0.00  0.00    +0.000 A 
ATOM     18 CL   UNL     1      -1.727  -2.821   2.035  0.00  0.00    +0.000 Cl
ENDBRANCH  11  12
ENDBRANCH   8  11
ENDBRANCH   3   7
BRANCH   1  19
ATOM     19  S   UNL     1       0.379  -1.714   0.233  0.00  0.00    +0.000 S 
ATOM     20  O   UNL     1       0.889  -2.309   1.547  0.00  0.00    +0.000 OA
ATOM     21  O   UNL     1      -1.151  -1.714   0.233  0.00  0.00    +0.000 OA
BRANCH  19  22
ATOM     22  N   UNL     1       0.966  -0.063   0.070  0.00  0.00    +0.000 NA
ATOM     23  H   UNL     1       0.626   0.498   0.851  0.00  0.00    +0.000 HD
ATOM     24  H   UNL     1       1.986  -0.063   0.070  0.00  0.00    +0.000 HD
ENDBRANCH  19  22
ENDBRANCH   1  19
BRANCH   6  25
ATOM     25  O   UNL     1       2.153  -0.730  -2.076  0.00  0.00    +0.000 OA
BRANCH  25  26
ATOM     26  C   UNL     1       2.970  -0.135  -3.074  0.00  0.00    +0.000 A 
ATOM     27  C   UNL     1       3.318   1.259  -2.983  0.00  0.00    +0.000 A 
ATOM     28  N   UNL     1       2.853   2.024  -1.916  0.00  0.00    +0.000 NA
ATOM     29  C   UNL     1       2.053   1.441  -0.937  0.00  0.00    +0.000 A 
ATOM     30 CL   UNL     1       1.623  -0.283  -1.050  0.00  0.00    +0.000 Cl
ATOM     31  N   UNL     1       1.588   2.206   0.130  0.00  0.00    +0.000 NA
ATOM     32  C   UNL     1       3.450  -0.927  -4.178  0.00  0.00    +0.000 A 
ENDBRANCH  25  26
ENDBRANCH   6  25
TORSDOF 7
