REMARK  Name = 
REMARK  9 active torsions:
REMARK  status: ('A' for Active; 'I' for Inactive)
REMARK    1  A    between atoms: C_1  and  O_2
REMARK    2  A    between atoms: O_2  and  C_3
REMARK    3  A    between atoms: C_6  and  C_7
REMARK    4  A    between atoms: N_9  and  N_10
REMARK    5  A    between atoms: N_10  and  C_11
REMARK    6  A    between atoms: C_11  and  N_13
REMARK    7  A    between atoms: C_14  and  C_16
REMARK    8  A    between atoms: C_19  and  O_20
REMARK    9  A    between atoms: O_20  and  C_21
REMARK                            x       y       z     vdW  Elec       q    Type
REMARK                         _______ _______ _______ _____ _____    ______ ____
ROOT
ATOM      1  N   UNL     1      -1.721   4.118  -0.932  0.00  0.00    +0.000 N 
ATOM      2  H   UNL     1      -1.135   3.547  -0.324  0.00  0.00    +0.000 HD
ENDROOT
BRANCH   1   5
ATOM      3  C   UNL     1      -1.839   5.861   0.861  0.00  0.00    +0.000 C 
ATOM      4  O   UNL     1      -2.263   6.989   1.264  0.00  0.00    +0.000 OA
ATOM      5  N   UNL     1      -2.194   5.379  -0.482  0.00  0.00    +0.000 N 
ATOM      6  H   UNL     1      -2.781   5.950  -1.090  0.00  0.00    +0.000 HD
BRANCH   3  10
ATOM      7  C   UNL     1       0.823   1.645   1.713  0.00  0.00    +0.000 A 
ATOM      8  C   UNL     1       0.343   2.923   2.170  0.00  0.00    +0.000 A 
ATOM      9  C   UNL     1      -0.485   3.730   1.311  0.00  0.00    +0.000 A 
ATOM     10  C   UNL     1      -0.965   5.009   1.768  0.00  0.00    +0.000 A 
ATOM     11  C   UNL     1      -0.617   5.481   3.083  0.00  0.00    +0.000 A 
ATOM     12  C   UNL     1       1.651   0.838   2.572  0.00  0.00    +0.000 A 
BRANCH   7  14
ATOM     13  C   UNL     1       0.953  -0.081  -0.034  0.00  0.00    +0.000 C 
ATOM     14  O   UNL     1       0.480   1.179   0.416  0.00  0.00    +0.000 OA
ENDBRANCH   7  14
ENDBRANCH   3  10
ENDBRANCH   1   5
BRANCH   1  15
ATOM     15  C   UNL     1      -2.076   3.637  -2.275  0.00  0.00    +0.000 C 
ATOM     16  S   UNL     1      -1.536   2.198  -2.788  0.00  0.00    +0.000 S 
BRANCH  15  17
ATOM     17  N   UNL     1      -2.921   4.460  -3.151  0.00  0.00    +0.000 N 
ATOM     18  C   UNL     1      -3.411   5.765  -2.685  0.00  0.00    +0.000 C 
ATOM     19  O   UNL     1      -4.142   6.477  -3.443  0.00  0.00    +0.000 OA
ATOM     20  H   UNL     1      -3.168   4.126  -4.083  0.00  0.00    +0.000 HD
BRANCH  18  21
ATOM     21  C   UNL     1      -3.044   6.263  -1.297  0.00  0.00    +0.000 A 
ATOM     22  C   UNL     1      -3.524   7.542  -0.840  0.00  0.00    +0.000 A 
ATOM     23  C   UNL     1      -4.352   8.349  -1.699  0.00  0.00    +0.000 A 
ATOM     24  C   UNL     1      -4.832   9.628  -1.242  0.00  0.00    +0.000 A 
ATOM     25  C   UNL     1      -4.484  10.100   0.074  0.00  0.00    +0.000 A 
ATOM     26  C   UNL     1      -2.216   5.456  -0.438  0.00  0.00    +0.000 A 
BRANCH  24  27
ATOM     27  O   UNL     1      -5.649  10.423  -2.089  0.00  0.00    +0.000 OA
ATOM     28  C   UNL     1      -5.992   9.958  -3.386  0.00  0.00    +0.000 C 
ENDBRANCH  24  27
ENDBRANCH  18  21
ENDBRANCH  15  17
ENDBRANCH   1  15
TORSDOF 7
