REMARK  Name = 
REMARK  8 active torsions:
REMARK  status: ('A' for Active; 'I' for Inactive)
REMARK    1  A    between atoms: C_1  and  C_2
REMARK    2  A    between atoms: C_2  and  N_3
REMARK    3  A    between atoms: N_3  and  C_4
REMARK    4  A    between atoms: C_4  and  C_5
REMARK    5  A    between atoms: C_6  and  C_8
REMARK    6  A    between atoms: C_8  and  N_9
REMARK    7  A    between atoms: C_11  and  C_12
REMARK    8  A    between atoms: N_19  and  C_20
REMARK                            x       y       z     vdW  Elec       q    Type
REMARK                         _______ _______ _______ _____ _____    ______ ____
ROOT
ATOM      1  C   UNL     1       4.058   3.431  -0.869  0.00  0.00    +0.000 C 
ATOM      2  C   UNL     1       4.840   2.597  -1.606  0.00  0.00    +0.000 C 
ATOM      3  C   UNL     1       5.346   1.298  -1.001  0.00  0.00    +0.000 C 
ATOM      4  O   UNL     1       5.039   0.991   0.193  0.00  0.00    +0.000 OA
ATOM      5  N   UNL     1       6.192   0.397  -1.798  0.00  0.00    +0.000 N 
ATOM      6  C   UNL     1       6.547   0.752  -3.179  0.00  0.00    +0.000 C 
ATOM      7  O   UNL     1       7.277  -0.027  -3.868  0.00  0.00    +0.000 OA
ATOM      8  N   UNL     1       6.057   2.008  -3.764  0.00  0.00    +0.000 N 
ATOM      9  C   UNL     1       5.207   2.964  -3.035  0.00  0.00    +0.000 C 
ATOM     10  O   UNL     1       4.783   4.050  -3.541  0.00  0.00    +0.000 OA
ATOM     11  H   UNL     1       6.532  -0.475  -1.392  0.00  0.00    +0.000 HD
ENDROOT
BRANCH   1  14
ATOM     12  N   UNL     1       2.526   3.611   2.648  0.00  0.00    +0.000 N 
ATOM     13  C   UNL     1       2.862   3.947   1.339  0.00  0.00    +0.000 A 
ATOM     14  C   UNL     1       3.690   3.064   0.559  0.00  0.00    +0.000 A 
ATOM     15  C   UNL     1       4.170   1.834   1.133  0.00  0.00    +0.000 A 
ATOM     16  C   UNL     1       4.998   0.950   0.352  0.00  0.00    +0.000 A 
ATOM     17  C   UNL     1       5.346   1.298  -1.001  0.00  0.00    +0.000 A 
ATOM     18  C   UNL     1       6.174   0.415  -1.782  0.00  0.00    +0.000 A 
ATOM     19  C   UNL     1       6.522   0.763  -3.135  0.00  0.00    +0.000 A 
ATOM     20  C   UNL     1       1.725   4.465   3.403  0.00  0.00    +0.000 A 
BRANCH  12  21
ATOM     21  C   UNL     1       3.016   2.355   3.234  0.00  0.00    +0.000 C 
BRANCH  21  23
ATOM     22  N   UNL     1       1.064   0.961   2.257  0.00  0.00    +0.000 N 
ATOM     23  C   UNL     1       2.509   1.181   2.411  0.00  0.00    +0.000 C 
ATOM     24  O   UNL     1       3.335   0.390   1.857  0.00  0.00    +0.000 OA
BRANCH  22  26
ATOM     25  C   UNL     1       1.081  -0.048   0.034  0.00  0.00    +0.000 C 
ATOM     26  C   UNL     1       0.574  -0.174   1.462  0.00  0.00    +0.000 C 
ENDBRANCH  22  26
BRANCH  22  27
ATOM     27  C   UNL     1       0.109   1.876   2.898  0.00  0.00    +0.000 C 
ATOM     28  C   UNL     1       0.324   1.861   4.403  0.00  0.00    +0.000 C 
ENDBRANCH  22  27
ENDBRANCH  21  23
ENDBRANCH  12  21
ENDBRANCH   1  14
BRANCH   8  29
ATOM     29  C   UNL     1       6.412   2.363  -5.146  0.00  0.00    +0.000 A 
ATOM     30  C   UNL     1       5.932   3.594  -5.719  0.00  0.00    +0.000 A 
ATOM     31  C   UNL     1       5.104   4.477  -4.939  0.00  0.00    +0.000 A 
ATOM     32  C   UNL     1       4.624   5.708  -5.513  0.00  0.00    +0.000 A 
ATOM     33  C   UNL     1       3.796   6.591  -4.732  0.00  0.00    +0.000 A 
ATOM     34  C   UNL     1       7.240   1.480  -5.926  0.00  0.00    +0.000 A 
ATOM     35  F   UNL     1       7.683   0.343  -5.397  0.00  0.00    +0.000 F 
ENDBRANCH   8  29
TORSDOF 6
