REMARK  Name = 
REMARK  6 active torsions:
REMARK  status: ('A' for Active; 'I' for Inactive)
REMARK    1  A    between atoms: C_1  and  N_2
REMARK    2  A    between atoms: C_3  and  C_5
REMARK    3  A    between atoms: C_7  and  C_8
REMARK    4  A    between atoms: N_10  and  C_11
REMARK    5  A    between atoms: N_15  and  C_16
REMARK    6  A    between atoms: C_16  and  C_17
REMARK                            x       y       z     vdW  Elec       q    Type
REMARK                         _______ _______ _______ _____ _____    ______ ____
ROOT
ATOM      1  C   UNL     1      -0.729  -2.394  -0.768  0.00  0.00    +0.000 A 
ATOM      2  C   UNL     1      -1.557  -3.516  -1.129  0.00  0.00    +0.000 A 
ATOM      3  C   UNL     1      -2.037  -3.652  -2.480  0.00  0.00    +0.000 A 
ATOM      4  C   UNL     1      -1.689  -2.666  -3.470  0.00  0.00    +0.000 A 
ATOM      5  N   UNL     1      -0.888  -1.581  -3.122  0.00  0.00    +0.000 N 
ATOM      6  C   UNL     1      -0.249  -2.258   0.583  0.00  0.00    +0.000 A 
ATOM      7  O   UNL     1       0.482  -1.268   0.901  0.00  0.00    +0.000 OA
ENDROOT
BRANCH   1  10
ATOM      8  C   UNL     1       0.973  -0.070  -0.067  0.00  0.00    +0.000 C 
ATOM      9  N   UNL     1       0.483  -0.208  -1.446  0.00  0.00    +0.000 N 
ATOM     10  C   UNL     1      -0.362  -1.353  -1.814  0.00  0.00    +0.000 C 
ATOM     11  O   UNL     1      -0.785  -1.473  -3.006  0.00  0.00    +0.000 OA
ATOM     12  H   UNL     1       0.730   0.490  -2.147  0.00  0.00    +0.000 HD
ENDBRANCH   1  10
BRANCH   3  13
ATOM     13  C   UNL     1      -2.911  -4.836  -2.861  0.00  0.00    +0.000 C 
ATOM     14  O   UNL     1      -3.334  -4.956  -4.053  0.00  0.00    +0.000 OA
ATOM     15  N   UNL     1      -3.266  -5.842  -1.850  0.00  0.00    +0.000 N 
ATOM     16  H   UNL     1      -3.852  -6.637  -2.105  0.00  0.00    +0.000 HD
BRANCH  15  17
ATOM     17  C   UNL     1      -2.776  -5.704  -0.471  0.00  0.00    +0.000 C 
ATOM     18  C   UNL     1      -1.931  -6.915  -0.109  0.00  0.00    +0.000 C 
ATOM     19  C   UNL     1      -3.958  -5.608   0.480  0.00  0.00    +0.000 C 
ENDBRANCH  15  17
ENDBRANCH   3  13
BRANCH   5  20
ATOM     20  C   UNL     1      -0.398  -1.442  -1.743  0.00  0.00    +0.000 C 
BRANCH  20  21
ATOM     21  C   UNL     1      -1.580  -1.347  -0.792  0.00  0.00    +0.000 A 
ATOM     22  N   UNL     1      -2.501  -0.310  -0.928  0.00  0.00    +0.000 NA
ATOM     23  C   UNL     1      -3.584  -0.223  -0.057  0.00  0.00    +0.000 A 
ATOM     24  C   UNL     1      -3.753  -1.204   0.984  0.00  0.00    +0.000 A 
ATOM     25  C   UNL     1      -4.873  -1.113   1.885  0.00  0.00    +0.000 A 
ATOM     26  N   UNL     1      -5.793  -0.077   1.749  0.00  0.00    +0.000 N 
ATOM     27  C   UNL     1      -5.631   0.872   0.743  0.00  0.00    +0.000 A 
ATOM     28  C   UNL     1      -6.583   1.943   0.602  0.00  0.00    +0.000 A 
ATOM     29  C   UNL     1      -5.041  -2.094   2.926  0.00  0.00    +0.000 A 
ATOM     30  H   UNL     1      -6.587  -0.013   2.387  0.00  0.00    +0.000 HD
ENDBRANCH  20  21
ENDBRANCH   5  20
TORSDOF 5
