REMARK  Name = 
REMARK  10 active torsions:
REMARK  status: ('A' for Active; 'I' for Inactive)
REMARK    1  A    between atoms: C_1  and  C_2
REMARK    2  A    between atoms: C_2  and  O_3
REMARK    3  A    between atoms: O_3  and  C_4
REMARK    4  A    between atoms: C_4  and  C_6
REMARK    5  A    between atoms: C_8  and  N_9
REMARK    6  A    between atoms: C_10  and  C_12
REMARK    7  A    between atoms: C_14  and  C_15
REMARK    8  A    between atoms: C_18  and  C_19
REMARK    9  A    between atoms: C_29  and  C_30
REMARK   10  A    between atoms: C_32  and  C_33
REMARK                            x       y       z     vdW  Elec       q    Type
REMARK                         _______ _______ _______ _____ _____    ______ ____
ROOT
ATOM      1  N   UNL     1       4.104   0.452  -6.863  0.00  0.00    +0.000 N 
ATOM      2  C   UNL     1       4.594   0.280  -8.238  0.00  0.00    +0.000 C 
ATOM      3  O   UNL     1       3.768   0.159  -9.197  0.00  0.00    +0.000 OA
ATOM      4  H   UNL     1       3.101   0.475  -6.678  0.00  0.00    +0.000 HD
ENDROOT
BRANCH   2   5
ATOM      5  C   UNL     1       6.089   0.245  -8.514  0.00  0.00    +0.000 A 
ATOM      6  C   UNL     1       6.569   0.076  -9.861  0.00  0.00    +0.000 A 
ATOM      7  C   UNL     1       5.633  -0.060 -10.947  0.00  0.00    +0.000 A 
ATOM      8  N   UNL     1       4.263  -0.028 -10.695  0.00  0.00    +0.000 NA
ATOM      9  C   UNL     1       3.358  -0.160 -11.745  0.00  0.00    +0.000 A 
ATOM     10  C   UNL     1       1.942  -0.127 -11.484  0.00  0.00    +0.000 A 
ATOM     11  C   UNL     1       1.462   0.042 -10.137  0.00  0.00    +0.000 A 
ATOM     12  C   UNL     1       0.046   0.074  -9.876  0.00  0.00    +0.000 A 
ATOM     13  C   UNL     1      -0.434   0.243  -8.528  0.00  0.00    +0.000 A 
ATOM     14  C   UNL     1       3.838  -0.329 -13.092  0.00  0.00    +0.000 A 
BRANCH   7  15
ATOM     15  C   UNL     1       6.139  -0.238 -12.369  0.00  0.00    +0.000 A 
ATOM     16  C   UNL     1       7.555  -0.271 -12.630  0.00  0.00    +0.000 A 
ATOM     17  C   UNL     1       8.491  -0.135 -11.544  0.00  0.00    +0.000 A 
ATOM     18  C   UNL     1       9.907  -0.167 -11.805  0.00  0.00    +0.000 A 
ATOM     19  C   UNL     1      10.895  -0.024 -10.659  0.00  0.00    +0.000 C 
ATOM     20  C   UNL     1      10.387  -0.336 -13.153  0.00  0.00    +0.000 A 
ATOM     21  C   UNL     1       5.204  -0.374 -13.455  0.00  0.00    +0.000 A 
ENDBRANCH   7  15
ENDBRANCH   2   5
BRANCH   1  24
ATOM     22  C   UNL     1       2.802   0.831  -3.839  0.00  0.00    +0.000 A 
ATOM     23  S   UNL     1       4.488   0.792  -4.150  0.00  0.00    +0.000 S 
ATOM     24  C   UNL     1       5.059   0.591  -5.754  0.00  0.00    +0.000 A 
ATOM     25  C   UNL     1       6.475   0.558  -6.015  0.00  0.00    +0.000 A 
ATOM     26  C   UNL     1       1.866   0.695  -4.925  0.00  0.00    +0.000 A 
ATOM     27  C   UNL     1       0.371   0.729  -4.650  0.00  0.00    +0.000 C 
BRANCH  22  28
ATOM     28  C   UNL     1       2.295   1.009  -2.417  0.00  0.00    +0.000 C 
ATOM     29  O   UNL     1       3.121   1.129  -1.459  0.00  0.00    +0.000 OA
BRANCH  28  30
ATOM     30  O   UNL     1       0.899   1.041  -2.160  0.00  0.00    +0.000 OA
BRANCH  30  32
ATOM     31  C   UNL     1       0.932   0.065   0.034  0.00  0.00    +0.000 C 
ATOM     32  C   UNL     1       0.426   1.208  -0.831  0.00  0.00    +0.000 C 
ENDBRANCH  30  32
ENDBRANCH  28  30
ENDBRANCH  22  28
BRANCH  25  33
ATOM     33  C   UNL     1       6.982   0.380  -7.437  0.00  0.00    +0.000 C 
ATOM     34  N   UNL     1       7.402   0.232  -8.617  0.00  0.00    +0.000 NA
ENDBRANCH  25  33
ENDBRANCH   1  24
TORSDOF 7
