REMARK  Name = 
REMARK  6 active torsions:
REMARK  status: ('A' for Active; 'I' for Inactive)
REMARK    1  A    between atoms: N_1  and  C_2
REMARK    2  A    between atoms: C_3  and  C_4
REMARK    3  A    between atoms: N_6  and  C_7
REMARK    4  A    between atoms: C_7  and  C_8
REMARK    5  A    between atoms: C_18  and  C_19
REMARK    6  A    between atoms: C_28  and  C_29
REMARK                            x       y       z     vdW  Elec       q    Type
REMARK                         _______ _______ _______ _____ _____    ______ ____
ROOT
ATOM      1  C   UNL     1       0.200   0.216   1.177  0.00  0.00    +0.000 A 
ATOM      2  C   UNL     1       0.920   0.439   2.404  0.00  0.00    +0.000 A 
ATOM      3  S   UNL     1       0.063   0.704   3.866  0.00  0.00    +0.000 S 
ATOM      4  C   UNL     1       0.920   0.969   5.327  0.00  0.00    +0.000 A 
ATOM      5  N   UNL     1       0.224   1.184   6.514  0.00  0.00    +0.000 NA
ATOM      6  C   UNL     1       0.920   1.400   7.701  0.00  0.00    +0.000 A 
ATOM      7  C   UNL     1       0.200   1.622   8.928  0.00  0.00    +0.000 A 
ATOM      8  C   UNL     1      -1.240   1.622   8.928  0.00  0.00    +0.000 A 
ATOM      9  C   UNL     1       2.360   0.969   5.327  0.00  0.00    +0.000 A 
ATOM     10  C   UNL     1       0.960   1.857  10.223  0.00  0.00    +0.000 C 
ATOM     11  C   UNL     1       1.834   0.650  10.524  0.00  0.00    +0.000 C 
ATOM     12  C   UNL     1       2.440   1.400   7.701  0.00  0.00    +0.000 C 
ATOM     13  C   UNL     1       3.120   1.189   6.542  0.00  0.00    +0.000 C 
ENDROOT
BRANCH   8  14
ATOM     14  C   UNL     1      -2.000   1.387   7.633  0.00  0.00    +0.000 A 
ATOM     15  C   UNL     1      -3.440   1.387   7.633  0.00  0.00    +0.000 A 
ATOM     16  C   UNL     1      -4.160   1.610   8.860  0.00  0.00    +0.000 A 
ATOM     17  C   UNL     1      -5.601   1.610   8.860  0.00  0.00    +0.000 A 
ATOM     18  O   UNL     1      -1.327   1.179   6.486  0.00  0.00    +0.000 OA
ENDBRANCH   8  14
BRANCH  13  19
ATOM     19  C   UNL     1       4.640   1.189   6.542  0.00  0.00    +0.000 A 
ATOM     20  C   UNL     1       5.361   1.412   7.769  0.00  0.00    +0.000 A 
ATOM     21  C   UNL     1       4.640   1.634   8.996  0.00  0.00    +0.000 A 
ATOM     22  C   UNL     1       5.361   1.857  10.223  0.00  0.00    +0.000 A 
ATOM     23  O   UNL     1       5.313   0.981   5.395  0.00  0.00    +0.000 OA
ENDBRANCH  13  19
BRANCH   2  24
ATOM     24  C   UNL     1       2.440   0.439   2.404  0.00  0.00    +0.000 C 
ATOM     25  O   UNL     1       3.076   0.635   3.487  0.00  0.00    +0.000 OA
ATOM     26  N   UNL     1       3.175   0.212   1.152  0.00  0.00    +0.000 N 
ATOM     27  H   UNL     1       4.195   0.212   1.152  0.00  0.00    +0.000 HD
BRANCH  26  28
ATOM     28  C   UNL     1       2.440  -0.016  -0.101  0.00  0.00    +0.000 C 
BRANCH  28  29
ATOM     29  C   UNL     1       2.807   1.063  -1.107  0.00  0.00    +0.000 C 
ATOM     30  C   UNL     1       2.047   0.828  -2.402  0.00  0.00    +0.000 C 
ATOM     31  C   UNL     1       0.553   0.878  -2.128  0.00  0.00    +0.000 C 
ATOM     32  C   UNL     1       0.186   2.241  -1.566  0.00  0.00    +0.000 C 
ATOM     33  O   UNL     1       4.204   1.017  -1.362  0.00  0.00    +0.000 OA
ENDBRANCH  28  29
ENDBRANCH  26  28
ENDBRANCH   2  24
BRANCH   1  34
ATOM     34  N   UNL     1       0.935  -0.011  -0.075  0.00  0.00    +0.000 N 
ATOM     35  H   UNL     1       0.425  -0.169  -0.945  0.00  0.00    +0.000 HD
ATOM     36  H   UNL     1       1.955  -0.011  -0.075  0.00  0.00    +0.000 HD
ENDBRANCH   1  34
TORSDOF 6
