REMARK  Name = 
REMARK  3 active torsions:
REMARK  status: ('A' for Active; 'I' for Inactive)
REMARK    1  A    between atoms: C_1  and  O_2
REMARK    2  A    between atoms: O_2  and  C_3
REMARK    3  A    between atoms: C_6  and  C_7
REMARK                            x       y       z     vdW  Elec       q    Type
REMARK                         _______ _______ _______ _____ _____    ______ ____
ROOT
ATOM      1  C   UNL     1      -1.727  -2.845  -5.260  0.00  0.00    +0.000 C 
ATOM      2  C   UNL     1      -2.180  -3.212  -6.489  0.00  0.00    +0.000 C 
ATOM      3  C   UNL     1      -1.813  -2.388  -7.712  0.00  0.00    +0.000 C 
ATOM      4  C   UNL     1      -2.328  -0.969  -7.540  0.00  0.00    +0.000 C 
ATOM      5  C   UNL     1      -1.699  -0.348  -6.304  0.00  0.00    +0.000 A 
ATOM      6  C   UNL     1      -1.903  -0.951  -5.012  0.00  0.00    +0.000 A 
ATOM      7  C   UNL     1      -2.703  -2.142  -4.891  0.00  0.00    +0.000 A 
ATOM      8  C   UNL     1      -2.907  -2.745  -3.600  0.00  0.00    +0.000 A 
ATOM      9  C   UNL     1      -3.708  -3.937  -3.479  0.00  0.00    +0.000 A 
ATOM     10  C   UNL     1      -0.899   0.844  -6.424  0.00  0.00    +0.000 A 
ATOM     11  C   UNL     1      -3.054  -4.447  -6.638  0.00  0.00    +0.000 C 
ATOM     12  O   UNL     1      -3.361  -5.136  -5.615  0.00  0.00    +0.000 OA
ENDROOT
BRANCH   1  16
ATOM     13  C   UNL     1       0.935   0.338  -2.367  0.00  0.00    +0.000 A 
ATOM     14  C   UNL     1       0.455  -0.051  -3.668  0.00  0.00    +0.000 A 
ATOM     15  C   UNL     1      -0.373  -1.221  -3.809  0.00  0.00    +0.000 A 
ATOM     16  C   UNL     1      -0.853  -1.610  -5.110  0.00  0.00    +0.000 A 
ATOM     17  C   UNL     1      -0.505  -0.829  -6.269  0.00  0.00    +0.000 A 
ATOM     18  C   UNL     1       1.763   1.508  -2.225  0.00  0.00    +0.000 A 
BRANCH  13  20
ATOM     19  C   UNL     1       1.065  -0.048   0.059  0.00  0.00    +0.000 C 
ATOM     20  O   UNL     1       0.592  -0.431  -1.224  0.00  0.00    +0.000 OA
ENDBRANCH  13  20
ENDBRANCH   1  16
TORSDOF 2
