REMARK  Name = 
REMARK  9 active torsions:
REMARK  status: ('A' for Active; 'I' for Inactive)
REMARK    1  A    between atoms: C_1  and  O_2
REMARK    2  A    between atoms: O_2  and  C_3
REMARK    3  A    between atoms: C_6  and  S_7
REMARK    4  A    between atoms: S_7  and  N_10
REMARK    5  A    between atoms: N_10  and  C_11
REMARK    6  A    between atoms: C_16  and  O_17
REMARK    7  A    between atoms: O_17  and  C_18
REMARK    8  A    between atoms: C_20  and  N_21
REMARK    9  A    between atoms: C_22  and  C_24
REMARK                            x       y       z     vdW  Elec       q    Type
REMARK                         _______ _______ _______ _____ _____    ______ ____
ROOT
ATOM      1  C   UNL     1       0.932   1.892   1.559  0.00  0.00    +0.000 A 
ATOM      2  C   UNL     1       0.452   3.199   1.924  0.00  0.00    +0.000 A 
ATOM      3  C   UNL     1      -0.376   3.944   1.011  0.00  0.00    +0.000 A 
ATOM      4  C   UNL     1      -0.856   5.252   1.376  0.00  0.00    +0.000 A 
ATOM      5  C   UNL     1      -0.508   5.815   2.655  0.00  0.00    +0.000 A 
ATOM      6  C   UNL     1       1.760   1.147   2.472  0.00  0.00    +0.000 A 
ENDROOT
BRANCH   6   7
ATOM      7  N   UNL     1       2.250  -0.188   2.099  0.00  0.00    +0.000 N 
ATOM      8  C   UNL     1       1.895  -0.762   0.794  0.00  0.00    +0.000 C 
ATOM      9  O   UNL     1       2.318  -1.916   0.471  0.00  0.00    +0.000 OA
ATOM     10  H   UNL     1       2.836  -0.715   2.746  0.00  0.00    +0.000 HD
BRANCH   8  11
ATOM     11  C   UNL     1       1.021   0.023  -0.170  0.00  0.00    +0.000 A 
ATOM     12  C   UNL     1       0.673  -0.540  -1.449  0.00  0.00    +0.000 A 
ATOM     13  C   UNL     1       1.153  -1.848  -1.815  0.00  0.00    +0.000 A 
ATOM     14  C   UNL     1       1.981  -2.592  -0.902  0.00  0.00    +0.000 A 
ATOM     15  C   UNL     1       2.329  -2.029   0.377  0.00  0.00    +0.000 A 
ATOM     16  C   UNL     1       3.157  -2.773   1.291  0.00  0.00    +0.000 A 
ATOM     17  C   UNL     1       3.505  -2.210   2.570  0.00  0.00    +0.000 A 
ATOM     18  C   UNL     1       0.805  -2.411  -3.094  0.00  0.00    +0.000 A 
ATOM     19  O   UNL     1       0.031  -1.715  -3.947  0.00  0.00    +0.000 OA
ATOM     20  C   UNL     1       0.541   1.331   0.195  0.00  0.00    +0.000 A 
ATOM     21  O   UNL     1       0.848   1.828   1.324  0.00  0.00    +0.000 OA
ENDBRANCH   8  11
ENDBRANCH   6   7
BRANCH   4  22
ATOM     22  S   UNL     1      -1.897   6.187   0.228  0.00  0.00    +0.000 S 
ATOM     23  O   UNL     1      -3.249   6.476   0.885  0.00  0.00    +0.000 OA
ATOM     24  O   UNL     1      -1.208   7.508  -0.124  0.00  0.00    +0.000 OA
BRANCH  22  25
ATOM     25  N   UNL     1      -2.146   5.246  -1.238  0.00  0.00    +0.000 N 
ATOM     26  H   UNL     1      -2.713   5.624  -1.997  0.00  0.00    +0.000 HD
BRANCH  25  27
ATOM     27  C   UNL     1      -1.538   3.914  -1.368  0.00  0.00    +0.000 A 
ATOM     28  C   UNL     1      -0.738   3.380  -0.297  0.00  0.00    +0.000 A 
ATOM     29  C   UNL     1      -0.534   4.150   0.903  0.00  0.00    +0.000 A 
ATOM     30  C   UNL     1       0.266   3.615   1.974  0.00  0.00    +0.000 A 
ATOM     31  C   UNL     1       0.470   4.386   3.174  0.00  0.00    +0.000 A 
ATOM     32  C   UNL     1      -1.742   3.144  -2.568  0.00  0.00    +0.000 A 
BRANCH  32  33
ATOM     33  O   UNL     1      -2.531   3.671  -3.625  0.00  0.00    +0.000 OA
ATOM     34  C   UNL     1      -2.732   2.911  -4.807  0.00  0.00    +0.000 C 
ENDBRANCH  32  33
ENDBRANCH  25  27
ENDBRANCH  22  25
ENDBRANCH   4  22
BRANCH   1  36
ATOM     35  C   UNL     1       1.062   0.047  -0.063  0.00  0.00    +0.000 C 
ATOM     36  O   UNL     1       0.589   1.336   0.298  0.00  0.00    +0.000 OA
ENDBRANCH   1  36
TORSDOF 7
