REMARK  Name = 
REMARK  5 active torsions:
REMARK  status: ('A' for Active; 'I' for Inactive)
REMARK    1  A    between atoms: C_1  and  N_2
REMARK    2  A    between atoms: C_5  and  O_6
REMARK    3  A    between atoms: C_5  and  C_7
REMARK    4  A    between atoms: C_8  and  C_9
REMARK    5  A    between atoms: C_13  and  C_14
REMARK                            x       y       z     vdW  Elec       q    Type
REMARK                         _______ _______ _______ _____ _____    ______ ____
ROOT
ATOM      1  C   UNL     1      -0.128   0.877   2.313  0.00  0.00    +0.000 A 
ATOM      2  C   UNL     1       0.410  -0.331   2.882  0.00  0.00    +0.000 A 
ATOM      3  C   UNL     1       1.296  -1.161   2.106  0.00  0.00    +0.000 A 
ATOM      4  C   UNL     1       1.833  -2.369   2.675  0.00  0.00    +0.000 A 
ATOM      5  C   UNL     1       2.719  -3.199   1.899  0.00  0.00    +0.000 A 
ATOM      6  C   UNL     1      -1.014   1.707   3.089  0.00  0.00    +0.000 A 
ENDROOT
BRANCH   5   7
ATOM      7  C   UNL     1       3.086  -2.798   0.480  0.00  0.00    +0.000 A 
ATOM      8  C   UNL     1       3.972  -3.627  -0.296  0.00  0.00    +0.000 A 
ATOM      9  N   UNL     1       4.492  -4.796   0.254  0.00  0.00    +0.000 N 
ATOM     10  C   UNL     1       5.349  -5.598  -0.496  0.00  0.00    +0.000 A 
ATOM     11  C   UNL     1       5.697  -5.219  -1.841  0.00  0.00    +0.000 A 
ATOM     12  N   UNL     1       5.176  -4.050  -2.391  0.00  0.00    +0.000 NA
ATOM     13  C   UNL     1       4.320  -3.248  -1.641  0.00  0.00    +0.000 A 
ATOM     14  N   UNL     1       3.965  -3.635  -0.268  0.00  0.00    +0.000 N 
ATOM     15  N   UNL     1       3.800  -2.079  -2.191  0.00  0.00    +0.000 NA
ATOM     16  C   UNL     1       5.886  -6.807   0.073  0.00  0.00    +0.000 A 
ATOM     17  H   UNL     1       4.246  -5.065   1.207  0.00  0.00    +0.000 HD
ATOM     18  H   UNL     1       3.337  -3.048   0.281  0.00  0.00    +0.000 HD
ATOM     19  H   UNL     1       4.346  -4.491   0.135  0.00  0.00    +0.000 HD
ENDBRANCH   5   7
BRANCH   1  21
ATOM     20  C   UNL     1       0.554   1.622  -0.324  0.00  0.00    +0.000 C 
ATOM     21  C   UNL     1       0.239   1.278   0.894  0.00  0.00    +0.000 C 
BRANCH  20  26
ATOM     22  C   UNL     1       0.943   0.048   0.066  0.00  0.00    +0.000 C 
ATOM     23  N   UNL     1       0.453  -0.744  -1.071  0.00  0.00    +0.000 N 
ATOM     24  C   UNL     1       0.808  -0.356  -2.444  0.00  0.00    +0.000 C 
ATOM     25  C   UNL     1       0.292   1.046  -2.724  0.00  0.00    +0.000 C 
ATOM     26  C   UNL     1       0.922   2.022  -1.743  0.00  0.00    +0.000 C 
ATOM     27  C   UNL     1      -0.393  -1.923  -0.836  0.00  0.00    +0.000 C 
ATOM     28  O   UNL     1      -0.700  -2.258   0.351  0.00  0.00    +0.000 OA
BRANCH  26  29
ATOM     29  O   UNL     1       0.440   3.332  -2.005  0.00  0.00    +0.000 OA
ATOM     30  H   UNL     1       0.682   3.596  -2.939  0.00  0.00    +0.000 HD
ENDBRANCH  26  29
ENDBRANCH  20  26
ENDBRANCH   1  21
TORSDOF 4
