REMARK  Name = 
REMARK  4 active torsions:
REMARK  status: ('A' for Active; 'I' for Inactive)
REMARK    1  A    between atoms: C_1  and  O_2
REMARK    2  A    between atoms: O_2  and  C_3
REMARK    3  A    between atoms: C_8  and  C_9
REMARK    4  A    between atoms: N_11  and  C_12
REMARK                            x       y       z     vdW  Elec       q    Type
REMARK                         _______ _______ _______ _____ _____    ______ ____
ROOT
ATOM      1  C   UNL     1       0.837   0.961   2.341  0.00  0.00    +0.000 A 
ATOM      2  C   UNL     1       0.357   1.948   3.273  0.00  0.00    +0.000 A 
ATOM      3  C   UNL     1      -0.471   3.032   2.810  0.00  0.00    +0.000 A 
ATOM      4  C   UNL     1      -0.951   4.020   3.742  0.00  0.00    +0.000 A 
ATOM      5  C   UNL     1      -0.603   3.923   5.137  0.00  0.00    +0.000 A 
ATOM      6  C   UNL     1       0.225   2.839   5.599  0.00  0.00    +0.000 A 
ATOM      7  C   UNL     1       0.705   1.852   4.667  0.00  0.00    +0.000 A 
ATOM      8  N   UNL     1       0.369   1.945   3.319  0.00  0.00    +0.000 NA
ATOM      9  C   UNL     1      -1.779   5.103   3.280  0.00  0.00    +0.000 A 
ATOM     10  C   UNL     1       1.665  -0.123   2.803  0.00  0.00    +0.000 A 
ENDROOT
BRANCH   6  11
ATOM     11  C   UNL     1       0.592   2.738   7.070  0.00  0.00    +0.000 C 
ATOM     12  O   UNL     1       1.323   1.781   7.478  0.00  0.00    +0.000 OA
ATOM     13  N   UNL     1       0.102   3.746   8.022  0.00  0.00    +0.000 N 
ATOM     14  H   UNL     1       0.349   3.677   9.009  0.00  0.00    +0.000 HD
BRANCH  13  15
ATOM     15  C   UNL     1      -0.743   4.852   7.550  0.00  0.00    +0.000 C 
ATOM     16  C   UNL     1      -0.059   6.176   7.850  0.00  0.00    +0.000 C 
ATOM     17  C   UNL     1       1.284   6.225   7.139  0.00  0.00    +0.000 C 
ATOM     18  N   UNL     1       1.076   6.098   5.689  0.00  0.00    +0.000 NA
ATOM     19  C   UNL     1       2.374   6.146   5.002  0.00  0.00    +0.000 C 
ATOM     20  C   UNL     1      -2.085   4.803   8.261  0.00  0.00    +0.000 C 
ATOM     21  H   UNL     1       0.616   5.210   5.488  0.00  0.00    +0.000 HD
ENDBRANCH  13  15
ENDBRANCH   6  11
BRANCH   1  23
ATOM     22  C   UNL     1       0.968   0.082   0.047  0.00  0.00    +0.000 C 
ATOM     23  O   UNL     1       0.494   1.056   0.966  0.00  0.00    +0.000 OA
ENDBRANCH   1  23
TORSDOF 3
