MODEL 1
REMARK VINA RESULT:    -7.275      0.000      0.000
REMARK INTER + INTRA:         -10.376
REMARK INTER:                  -9.827
REMARK INTRA:                  -0.549
REMARK UNBOUND:                -0.549
REMARK  Name = 
REMARK  8 active torsions:
REMARK  status: ('A' for Active; 'I' for Inactive)
REMARK    1  A    between atoms: C_1  and  O_2
REMARK    2  A    between atoms: O_2  and  C_3
REMARK    3  A    between atoms: C_6  and  C_7
REMARK    4  A    between atoms: N_9  and  C_10
REMARK    5  A    between atoms: C_10  and  N_12
REMARK    6  A    between atoms: N_12  and  N_13
REMARK    7  A    between atoms: C_14  and  C_16
REMARK    8  A    between atoms: C_19  and  C_20
REMARK                            x       y       z     vdW  Elec       q    Type
REMARK                         _______ _______ _______ _____ _____    ______ ____
ROOT
ATOM      1  C   UNL     1      14.102   3.813  31.132  0.00  0.00    +0.000 C 
ATOM      2  S   UNL     1      14.295   2.646  32.238  0.00  0.00    +0.000 S 
ENDROOT
BRANCH   1   5
ATOM      3  C   UNL     1      13.059   6.098  31.545  0.00  0.00    +0.000 C 
ATOM      4  O   UNL     1      13.178   7.320  31.880  0.00  0.00    +0.000 OA
ATOM      5  N   UNL     1      14.240   5.224  31.519  0.00  0.00    +0.000 N 
ATOM      6  H   UNL     1      15.155   5.597  31.771  0.00  0.00    +0.000 HD
BRANCH   3  10
ATOM      7  C   UNL     1       8.999   6.068  28.528  0.00  0.00    +0.000 A 
ATOM      8  C   UNL     1       9.699   5.543  29.672  0.00  0.00    +0.000 A 
ATOM      9  C   UNL     1      10.993   6.068  30.027  0.00  0.00    +0.000 A 
ATOM     10  C   UNL     1      11.694   5.544  31.170  0.00  0.00    +0.000 A 
ATOM     11  C   UNL     1      11.103   4.494  31.958  0.00  0.00    +0.000 A 
ATOM     12  C   UNL     1       7.706   5.542  28.174  0.00  0.00    +0.000 A 
BRANCH   7  14
ATOM     13  C   UNL     1       8.848   8.287  27.480  0.00  0.00    +0.000 C 
ATOM     14  O   UNL     1       9.583   7.103  27.751  0.00  0.00    +0.000 OA
ENDBRANCH   7  14
ENDBRANCH   3  10
ENDBRANCH   1   5
BRANCH   1  15
ATOM     15  N   UNL     1      13.789   3.461  29.739  0.00  0.00    +0.000 N 
ATOM     16  H   UNL     1      13.235   2.628  29.536  0.00  0.00    +0.000 HD
BRANCH  15  17
ATOM     17  N   UNL     1      14.257   4.279  28.677  0.00  0.00    +0.000 N 
ATOM     18  C   UNL     1      15.246   3.754  27.725  0.00  0.00    +0.000 C 
ATOM     19  O   UNL     1      15.665   4.486  26.775  0.00  0.00    +0.000 OA
ATOM     20  H   UNL     1      13.907   5.231  28.575  0.00  0.00    +0.000 HD
BRANCH  18  21
ATOM     21  C   UNL     1      15.768   2.334  27.878  0.00  0.00    +0.000 A 
ATOM     22  C   UNL     1      15.054   1.236  27.279  0.00  0.00    +0.000 A 
ATOM     23  C   UNL     1      13.845   1.483  26.536  0.00  0.00    +0.000 A 
ATOM     24  C   UNL     1      13.131   0.385  25.938  0.00  0.00    +0.000 A 
ATOM     25  C   UNL     1      11.855   0.646  25.153  0.00  0.00    +0.000 C 
ATOM     26  C   UNL     1      13.625  -0.960  26.082  0.00  0.00    +0.000 A 
ATOM     27  C   UNL     1      16.976   2.087  28.621  0.00  0.00    +0.000 A 
ENDBRANCH  18  21
ENDBRANCH  15  17
ENDBRANCH   1  15
TORSDOF 6
ENDMDL
MODEL 2
REMARK VINA RESULT:    -6.997      1.863      6.932
REMARK INTER + INTRA:         -10.001
REMARK INTER:                  -9.194
REMARK INTRA:                  -0.807
REMARK UNBOUND:                -0.549
REMARK  Name = 
REMARK  8 active torsions:
REMARK  status: ('A' for Active; 'I' for Inactive)
REMARK    1  A    between atoms: C_1  and  O_2
REMARK    2  A    between atoms: O_2  and  C_3
REMARK    3  A    between atoms: C_6  and  C_7
REMARK    4  A    between atoms: N_9  and  C_10
REMARK    5  A    between atoms: C_10  and  N_12
REMARK    6  A    between atoms: N_12  and  N_13
REMARK    7  A    between atoms: C_14  and  C_16
REMARK    8  A    between atoms: C_19  and  C_20
REMARK                            x       y       z     vdW  Elec       q    Type
REMARK                         _______ _______ _______ _____ _____    ______ ____
ROOT
ATOM      1  C   UNL     1      13.737   3.810  29.661  0.00  0.00    +0.000 C 
ATOM      2  S   UNL     1      14.035   3.356  31.187  0.00  0.00    +0.000 S 
ENDROOT
BRANCH   1   5
ATOM      3  C   UNL     1      15.653   4.010  27.997  0.00  0.00    +0.000 C 
ATOM      4  O   UNL     1      16.498   4.725  27.370  0.00  0.00    +0.000 OA
ATOM      5  N   UNL     1      14.713   4.637  28.936  0.00  0.00    +0.000 N 
ATOM      6  H   UNL     1      14.737   5.645  29.085  0.00  0.00    +0.000 HD
BRANCH   3  10
ATOM      7  C   UNL     1      13.859  -0.034  25.545  0.00  0.00    +0.000 A 
ATOM      8  C   UNL     1      14.721   0.524  26.555  0.00  0.00    +0.000 A 
ATOM      9  C   UNL     1      14.755   1.948  26.766  0.00  0.00    +0.000 A 
ATOM     10  C   UNL     1      15.618   2.506  27.775  0.00  0.00    +0.000 A 
ATOM     11  C   UNL     1      16.445   1.641  28.573  0.00  0.00    +0.000 A 
ATOM     12  C   UNL     1      13.825  -1.458  25.334  0.00  0.00    +0.000 A 
BRANCH   7  14
ATOM     13  C   UNL     1      11.948   0.283  24.029  0.00  0.00    +0.000 C 
ATOM     14  O   UNL     1      13.042   0.820  24.757  0.00  0.00    +0.000 OA
ENDBRANCH   7  14
ENDBRANCH   3  10
ENDBRANCH   1   5
BRANCH   1  15
ATOM     15  N   UNL     1      12.491   3.395  29.001  0.00  0.00    +0.000 N 
ATOM     16  H   UNL     1      12.153   2.438  29.106  0.00  0.00    +0.000 HD
BRANCH  15  17
ATOM     17  N   UNL     1      11.758   4.326  28.218  0.00  0.00    +0.000 N 
ATOM     18  C   UNL     1      10.930   5.347  28.875  0.00  0.00    +0.000 C 
ATOM     19  O   UNL     1      10.274   6.180  28.175  0.00  0.00    +0.000 OA
ATOM     20  H   UNL     1      11.806   4.285  27.200  0.00  0.00    +0.000 HD
BRANCH  18  21
ATOM     21  C   UNL     1      10.859   5.407  30.393  0.00  0.00    +0.000 A 
ATOM     22  C   UNL     1      11.696   6.329  31.117  0.00  0.00    +0.000 A 
ATOM     23  C   UNL     1      12.600   7.194  30.403  0.00  0.00    +0.000 A 
ATOM     24  C   UNL     1      13.437   8.116  31.127  0.00  0.00    +0.000 A 
ATOM     25  C   UNL     1      14.391   9.029  30.374  0.00  0.00    +0.000 C 
ATOM     26  C   UNL     1      13.369   8.173  32.565  0.00  0.00    +0.000 A 
ATOM     27  C   UNL     1       9.955   4.543  31.105  0.00  0.00    +0.000 A 
ENDBRANCH  18  21
ENDBRANCH  15  17
ENDBRANCH   1  15
TORSDOF 6
ENDMDL
MODEL 3
REMARK VINA RESULT:    -6.824     28.893     31.726
REMARK INTER + INTRA:          -9.767
REMARK INTER:                  -8.287
REMARK INTRA:                  -1.480
REMARK UNBOUND:                -0.549
REMARK  Name = 
REMARK  8 active torsions:
REMARK  status: ('A' for Active; 'I' for Inactive)
REMARK    1  A    between atoms: C_1  and  O_2
REMARK    2  A    between atoms: O_2  and  C_3
REMARK    3  A    between atoms: C_6  and  C_7
REMARK    4  A    between atoms: N_9  and  C_10
REMARK    5  A    between atoms: C_10  and  N_12
REMARK    6  A    between atoms: N_12  and  N_13
REMARK    7  A    between atoms: C_14  and  C_16
REMARK    8  A    between atoms: C_19  and  C_20
REMARK                            x       y       z     vdW  Elec       q    Type
REMARK                         _______ _______ _______ _____ _____    ______ ____
ROOT
ATOM      1  C   UNL     1      40.809  12.875  42.225  0.00  0.00    +0.000 C 
ATOM      2  S   UNL     1      40.845  14.353  42.888  0.00  0.00    +0.000 S 
ENDROOT
BRANCH   1   5
ATOM      3  C   UNL     1      42.157  11.016  43.322  0.00  0.00    +0.000 C 
ATOM      4  O   UNL     1      43.193  10.278  43.355  0.00  0.00    +0.000 OA
ATOM      5  N   UNL     1      42.005  12.023  42.262  0.00  0.00    +0.000 N 
ATOM      6  H   UNL     1      42.730  12.130  41.554  0.00  0.00    +0.000 HD
BRANCH   3  10
ATOM      7  C   UNL     1      40.115  12.328  47.759  0.00  0.00    +0.000 A 
ATOM      8  C   UNL     1      40.084  11.515  46.571  0.00  0.00    +0.000 A 
ATOM      9  C   UNL     1      41.107  11.667  45.569  0.00  0.00    +0.000 A 
ATOM     10  C   UNL     1      41.077  10.855  44.379  0.00  0.00    +0.000 A 
ATOM     11  C   UNL     1      40.023   9.892  44.192  0.00  0.00    +0.000 A 
ATOM     12  C   UNL     1      39.091  12.175  48.761  0.00  0.00    +0.000 A 
BRANCH   7  14
ATOM     13  C   UNL     1      40.913  14.454  48.702  0.00  0.00    +0.000 C 
ATOM     14  O   UNL     1      41.153  13.278  47.944  0.00  0.00    +0.000 OA
ENDBRANCH   7  14
ENDBRANCH   3  10
ENDBRANCH   1   5
BRANCH   1  15
ATOM     15  N   UNL     1      39.577  12.387  41.587  0.00  0.00    +0.000 N 
ATOM     16  H   UNL     1      39.465  11.392  41.391  0.00  0.00    +0.000 HD
BRANCH  15  17
ATOM     17  N   UNL     1      38.545  13.299  41.244  0.00  0.00    +0.000 N 
ATOM     18  C   UNL     1      37.336  13.387  42.075  0.00  0.00    +0.000 C 
ATOM     19  O   UNL     1      36.412  14.204  41.769  0.00  0.00    +0.000 OA
ATOM     20  H   UNL     1      38.642  13.893  40.421  0.00  0.00    +0.000 HD
BRANCH  18  21
ATOM     21  C   UNL     1      37.191  12.501  43.303  0.00  0.00    +0.000 A 
ATOM     22  C   UNL     1      36.581  11.202  43.185  0.00  0.00    +0.000 A 
ATOM     23  C   UNL     1      36.108  10.742  41.904  0.00  0.00    +0.000 A 
ATOM     24  C   UNL     1      35.498   9.443  41.787  0.00  0.00    +0.000 A 
ATOM     25  C   UNL     1      35.000   8.957  40.436  0.00  0.00    +0.000 C 
ATOM     26  C   UNL     1      35.362   8.603  42.949  0.00  0.00    +0.000 A 
ATOM     27  C   UNL     1      37.664  12.962  44.582  0.00  0.00    +0.000 A 
ENDBRANCH  18  21
ENDBRANCH  15  17
ENDBRANCH   1  15
TORSDOF 6
ENDMDL
MODEL 4
REMARK VINA RESULT:    -6.786      2.764      3.486
REMARK INTER + INTRA:          -9.716
REMARK INTER:                  -9.001
REMARK INTRA:                  -0.715
REMARK UNBOUND:                -0.549
REMARK  Name = 
REMARK  8 active torsions:
REMARK  status: ('A' for Active; 'I' for Inactive)
REMARK    1  A    between atoms: C_1  and  O_2
REMARK    2  A    between atoms: O_2  and  C_3
REMARK    3  A    between atoms: C_6  and  C_7
REMARK    4  A    between atoms: N_9  and  C_10
REMARK    5  A    between atoms: C_10  and  N_12
REMARK    6  A    between atoms: N_12  and  N_13
REMARK    7  A    between atoms: C_14  and  C_16
REMARK    8  A    between atoms: C_19  and  C_20
REMARK                            x       y       z     vdW  Elec       q    Type
REMARK                         _______ _______ _______ _____ _____    ______ ____
ROOT
ATOM      1  C   UNL     1      11.790   5.276  29.883  0.00  0.00    +0.000 C 
ATOM      2  S   UNL     1      10.417   5.683  29.125  0.00  0.00    +0.000 S 
ENDROOT
BRANCH   1   5
ATOM      3  C   UNL     1      12.670   7.003  31.533  0.00  0.00    +0.000 C 
ATOM      4  O   UNL     1      12.872   7.379  32.731  0.00  0.00    +0.000 OA
ATOM      5  N   UNL     1      12.022   5.710  31.267  0.00  0.00    +0.000 N 
ATOM      6  H   UNL     1      11.734   5.116  32.044  0.00  0.00    +0.000 HD
BRANCH   3  10
ATOM      7  C   UNL     1      11.783  10.855  28.378  0.00  0.00    +0.000 A 
ATOM      8  C   UNL     1      12.645   9.793  28.828  0.00  0.00    +0.000 A 
ATOM      9  C   UNL     1      12.239   8.952  29.924  0.00  0.00    +0.000 A 
ATOM     10  C   UNL     1      13.100   7.890  30.376  0.00  0.00    +0.000 A 
ATOM     11  C   UNL     1      14.368   7.669  29.732  0.00  0.00    +0.000 A 
ATOM     12  C   UNL     1      12.191  11.695  27.282  0.00  0.00    +0.000 A 
BRANCH   7  14
ATOM     13  C   UNL     1       9.683  12.119  28.568  0.00  0.00    +0.000 C 
ATOM     14  O   UNL     1      10.533  11.073  29.013  0.00  0.00    +0.000 OA
ENDBRANCH   7  14
ENDBRANCH   3  10
ENDBRANCH   1   5
BRANCH   1  15
ATOM     15  N   UNL     1      12.803   4.471  29.185  0.00  0.00    +0.000 N 
ATOM     16  H   UNL     1      12.895   4.535  28.171  0.00  0.00    +0.000 HD
BRANCH  15  17
ATOM     17  N   UNL     1      13.654   3.606  29.922  0.00  0.00    +0.000 N 
ATOM     18  C   UNL     1      14.849   3.033  29.286  0.00  0.00    +0.000 C 
ATOM     19  O   UNL     1      15.610   2.259  29.946  0.00  0.00    +0.000 OA
ATOM     20  H   UNL     1      13.437   3.383  30.893  0.00  0.00    +0.000 HD
BRANCH  18  21
ATOM     21  C   UNL     1      15.173   3.366  27.838  0.00  0.00    +0.000 A 
ATOM     22  C   UNL     1      14.814   2.446  26.790  0.00  0.00    +0.000 A 
ATOM     23  C   UNL     1      14.148   1.210  27.113  0.00  0.00    +0.000 A 
ATOM     24  C   UNL     1      13.789   0.290  26.065  0.00  0.00    +0.000 A 
ATOM     25  C   UNL     1      13.085  -1.013  26.406  0.00  0.00    +0.000 C 
ATOM     26  C   UNL     1      14.095   0.605  24.694  0.00  0.00    +0.000 A 
ATOM     27  C   UNL     1      15.839   4.601  27.516  0.00  0.00    +0.000 A 
ENDBRANCH  18  21
ENDBRANCH  15  17
ENDBRANCH   1  15
TORSDOF 6
ENDMDL
MODEL 5
REMARK VINA RESULT:    -6.703     28.056     30.865
REMARK INTER + INTRA:          -9.604
REMARK INTER:                  -8.146
REMARK INTRA:                  -1.458
REMARK UNBOUND:                -0.549
REMARK  Name = 
REMARK  8 active torsions:
REMARK  status: ('A' for Active; 'I' for Inactive)
REMARK    1  A    between atoms: C_1  and  O_2
REMARK    2  A    between atoms: O_2  and  C_3
REMARK    3  A    between atoms: C_6  and  C_7
REMARK    4  A    between atoms: N_9  and  C_10
REMARK    5  A    between atoms: C_10  and  N_12
REMARK    6  A    between atoms: N_12  and  N_13
REMARK    7  A    between atoms: C_14  and  C_16
REMARK    8  A    between atoms: C_19  and  C_20
REMARK                            x       y       z     vdW  Elec       q    Type
REMARK                         _______ _______ _______ _____ _____    ______ ____
ROOT
ATOM      1  C   UNL     1      39.782  13.434  43.357  0.00  0.00    +0.000 C 
ATOM      2  S   UNL     1      40.534  14.546  42.451  0.00  0.00    +0.000 S 
ENDROOT
BRANCH   1   5
ATOM      3  C   UNL     1      37.346  13.600  44.078  0.00  0.00    +0.000 C 
ATOM      4  O   UNL     1      36.471  13.958  44.929  0.00  0.00    +0.000 OA
ATOM      5  N   UNL     1      38.771  13.847  44.340  0.00  0.00    +0.000 N 
ATOM      6  H   UNL     1      39.058  14.305  45.205  0.00  0.00    +0.000 HD
BRANCH   3  10
ATOM      7  C   UNL     1      35.486   9.578  41.639  0.00  0.00    +0.000 A 
ATOM      8  C   UNL     1      35.999  10.924  41.603  0.00  0.00    +0.000 A 
ATOM      9  C   UNL     1      36.405  11.572  42.823  0.00  0.00    +0.000 A 
ATOM     10  C   UNL     1      36.917  12.917  42.789  0.00  0.00    +0.000 A 
ATOM     11  C   UNL     1      37.023  13.615  41.534  0.00  0.00    +0.000 A 
ATOM     12  C   UNL     1      35.080   8.931  40.418  0.00  0.00    +0.000 A 
BRANCH   7  14
ATOM     13  C   UNL     1      35.356   7.471  42.899  0.00  0.00    +0.000 C 
ATOM     14  O   UNL     1      35.381   8.890  42.876  0.00  0.00    +0.000 OA
ENDBRANCH   7  14
ENDBRANCH   3  10
ENDBRANCH   1   5
BRANCH   1  15
ATOM     15  N   UNL     1      40.110  12.010  43.194  0.00  0.00    +0.000 N 
ATOM     16  H   UNL     1      39.665  11.465  42.455  0.00  0.00    +0.000 HD
BRANCH  15  17
ATOM     17  N   UNL     1      41.047  11.393  44.065  0.00  0.00    +0.000 N 
ATOM     18  C   UNL     1      40.596  10.391  45.040  0.00  0.00    +0.000 C 
ATOM     19  O   UNL     1      41.434   9.839  45.819  0.00  0.00    +0.000 OA
ATOM     20  H   UNL     1      42.034  11.647  44.014  0.00  0.00    +0.000 HD
BRANCH  18  21
ATOM     21  C   UNL     1      39.125  10.013  45.116  0.00  0.00    +0.000 A 
ATOM     22  C   UNL     1      38.258  10.677  46.055  0.00  0.00    +0.000 A 
ATOM     23  C   UNL     1      38.786  11.698  46.923  0.00  0.00    +0.000 A 
ATOM     24  C   UNL     1      37.919  12.362  47.863  0.00  0.00    +0.000 A 
ATOM     25  C   UNL     1      38.475  13.440  48.778  0.00  0.00    +0.000 C 
ATOM     26  C   UNL     1      36.526  12.005  47.935  0.00  0.00    +0.000 A 
ATOM     27  C   UNL     1      38.599   8.991  44.248  0.00  0.00    +0.000 A 
ENDBRANCH  18  21
ENDBRANCH  15  17
ENDBRANCH   1  15
TORSDOF 6
ENDMDL
MODEL 6
REMARK VINA RESULT:    -6.659      2.052      6.869
REMARK INTER + INTRA:          -9.544
REMARK INTER:                  -8.858
REMARK INTRA:                  -0.687
REMARK UNBOUND:                -0.549
REMARK  Name = 
REMARK  8 active torsions:
REMARK  status: ('A' for Active; 'I' for Inactive)
REMARK    1  A    between atoms: C_1  and  O_2
REMARK    2  A    between atoms: O_2  and  C_3
REMARK    3  A    between atoms: C_6  and  C_7
REMARK    4  A    between atoms: N_9  and  C_10
REMARK    5  A    between atoms: C_10  and  N_12
REMARK    6  A    between atoms: N_12  and  N_13
REMARK    7  A    between atoms: C_14  and  C_16
REMARK    8  A    between atoms: C_19  and  C_20
REMARK                            x       y       z     vdW  Elec       q    Type
REMARK                         _______ _______ _______ _____ _____    ______ ____
ROOT
ATOM      1  C   UNL     1      13.235   4.228  29.077  0.00  0.00    +0.000 C 
ATOM      2  S   UNL     1      11.749   3.768  28.626  0.00  0.00    +0.000 S 
ENDROOT
BRANCH   1   5
ATOM      3  C   UNL     1      15.025   3.980  27.284  0.00  0.00    +0.000 C 
ATOM      4  O   UNL     1      15.814   4.504  26.435  0.00  0.00    +0.000 OA
ATOM      5  N   UNL     1      14.146   4.834  28.096  0.00  0.00    +0.000 N 
ATOM      6  H   UNL     1      14.169   5.846  27.979  0.00  0.00    +0.000 HD
BRANCH   3  10
ATOM      7  C   UNL     1      13.234  -0.562  25.963  0.00  0.00    +0.000 A 
ATOM      8  C   UNL     1      14.096   0.239  26.793  0.00  0.00    +0.000 A 
ATOM      9  C   UNL     1      14.129   1.669  26.629  0.00  0.00    +0.000 A 
ATOM     10  C   UNL     1      14.991   2.470  27.458  0.00  0.00    +0.000 A 
ATOM     11  C   UNL     1      15.822   1.842  28.451  0.00  0.00    +0.000 A 
ATOM     12  C   UNL     1      13.202  -1.992  26.128  0.00  0.00    +0.000 A 
BRANCH   7  14
ATOM     13  C   UNL     1      12.735  -0.070  23.605  0.00  0.00    +0.000 C 
ATOM     14  O   UNL     1      12.415   0.058  24.983  0.00  0.00    +0.000 OA
ENDBRANCH   7  14
ENDBRANCH   3  10
ENDBRANCH   1   5
BRANCH   1  15
ATOM     15  N   UNL     1      13.672   4.039  30.468  0.00  0.00    +0.000 N 
ATOM     16  H   UNL     1      14.593   3.645  30.664  0.00  0.00    +0.000 HD
BRANCH  15  17
ATOM     17  N   UNL     1      12.814   4.407  31.538  0.00  0.00    +0.000 N 
ATOM     18  C   UNL     1      12.630   5.825  31.878  0.00  0.00    +0.000 C 
ATOM     19  O   UNL     1      11.863   6.155  32.836  0.00  0.00    +0.000 OA
ATOM     20  H   UNL     1      12.326   3.688  32.070  0.00  0.00    +0.000 HD
BRANCH  18  21
ATOM     21  C   UNL     1      13.359   6.898  31.085  0.00  0.00    +0.000 A 
ATOM     22  C   UNL     1      12.667   7.625  30.052  0.00  0.00    +0.000 A 
ATOM     23  C   UNL     1      11.284   7.336  29.772  0.00  0.00    +0.000 A 
ATOM     24  C   UNL     1      10.592   8.063  28.739  0.00  0.00    +0.000 A 
ATOM     25  C   UNL     1       9.133   7.759  28.443  0.00  0.00    +0.000 C 
ATOM     26  C   UNL     1      11.282   9.080  27.988  0.00  0.00    +0.000 A 
ATOM     27  C   UNL     1      14.742   7.186  31.366  0.00  0.00    +0.000 A 
ENDBRANCH  18  21
ENDBRANCH  15  17
ENDBRANCH   1  15
TORSDOF 6
ENDMDL
MODEL 7
REMARK VINA RESULT:    -6.646     19.219     22.654
REMARK INTER + INTRA:          -9.526
REMARK INTER:                  -8.603
REMARK INTRA:                  -0.923
REMARK UNBOUND:                -0.549
REMARK  Name = 
REMARK  8 active torsions:
REMARK  status: ('A' for Active; 'I' for Inactive)
REMARK    1  A    between atoms: C_1  and  O_2
REMARK    2  A    between atoms: O_2  and  C_3
REMARK    3  A    between atoms: C_6  and  C_7
REMARK    4  A    between atoms: N_9  and  C_10
REMARK    5  A    between atoms: C_10  and  N_12
REMARK    6  A    between atoms: N_12  and  N_13
REMARK    7  A    between atoms: C_14  and  C_16
REMARK    8  A    between atoms: C_19  and  C_20
REMARK                            x       y       z     vdW  Elec       q    Type
REMARK                         _______ _______ _______ _____ _____    ______ ____
ROOT
ATOM      1  C   UNL     1      30.205 -10.965  28.904  0.00  0.00    +0.000 C 
ATOM      2  S   UNL     1      30.966 -12.163  28.124  0.00  0.00    +0.000 S 
ENDROOT
BRANCH   1   5
ATOM      3  C   UNL     1      31.585  -9.350  30.306  0.00  0.00    +0.000 C 
ATOM      4  O   UNL     1      32.008  -8.960  31.441  0.00  0.00    +0.000 OA
ATOM      5  N   UNL     1      30.692 -10.514  30.215  0.00  0.00    +0.000 N 
ATOM      6  H   UNL     1      30.412 -11.009  31.061  0.00  0.00    +0.000 HD
BRANCH   3  10
ATOM      7  C   UNL     1      34.585  -8.909  26.258  0.00  0.00    +0.000 A 
ATOM      8  C   UNL     1      33.493  -8.410  27.054  0.00  0.00    +0.000 A 
ATOM      9  C   UNL     1      33.096  -9.109  28.249  0.00  0.00    +0.000 A 
ATOM     10  C   UNL     1      32.004  -8.612  29.045  0.00  0.00    +0.000 A 
ATOM     11  C   UNL     1      31.310  -7.415  28.647  0.00  0.00    +0.000 A 
ATOM     12  C   UNL     1      34.982  -8.209  25.063  0.00  0.00    +0.000 A 
BRANCH   7  14
ATOM     13  C   UNL     1      35.322 -11.205  25.774  0.00  0.00    +0.000 C 
ATOM     14  O   UNL     1      35.270 -10.089  26.650  0.00  0.00    +0.000 OA
ENDBRANCH   7  14
ENDBRANCH   3  10
ENDBRANCH   1   5
BRANCH   1  15
ATOM     15  N   UNL     1      29.026 -10.327  28.299  0.00  0.00    +0.000 N 
ATOM     16  H   UNL     1      28.763 -10.548  27.338  0.00  0.00    +0.000 HD
BRANCH  15  17
ATOM     17  N   UNL     1      28.254  -9.403  29.052  0.00  0.00    +0.000 N 
ATOM     18  C   UNL     1      27.468  -8.369  28.364  0.00  0.00    +0.000 C 
ATOM     19  O   UNL     1      26.778  -7.542  29.038  0.00  0.00    +0.000 OA
ATOM     20  H   UNL     1      28.245  -9.457  30.070  0.00  0.00    +0.000 HD
BRANCH  18  21
ATOM     21  C   UNL     1      27.483  -8.288  26.845  0.00  0.00    +0.000 A 
ATOM     22  C   UNL     1      26.439  -8.920  26.081  0.00  0.00    +0.000 A 
ATOM     23  C   UNL     1      25.381  -9.629  26.755  0.00  0.00    +0.000 A 
ATOM     24  C   UNL     1      24.337 -10.261  25.991  0.00  0.00    +0.000 A 
ATOM     25  C   UNL     1      23.221 -11.009  26.701  0.00  0.00    +0.000 C 
ATOM     26  C   UNL     1      24.350 -10.185  24.553  0.00  0.00    +0.000 A 
ATOM     27  C   UNL     1      28.540  -7.579  26.173  0.00  0.00    +0.000 A 
ENDBRANCH  18  21
ENDBRANCH  15  17
ENDBRANCH   1  15
TORSDOF 6
ENDMDL
MODEL 8
REMARK VINA RESULT:    -6.635     18.948     20.554
REMARK INTER + INTRA:          -9.512
REMARK INTER:                  -8.527
REMARK INTRA:                  -0.986
REMARK UNBOUND:                -0.549
REMARK  Name = 
REMARK  8 active torsions:
REMARK  status: ('A' for Active; 'I' for Inactive)
REMARK    1  A    between atoms: C_1  and  O_2
REMARK    2  A    between atoms: O_2  and  C_3
REMARK    3  A    between atoms: C_6  and  C_7
REMARK    4  A    between atoms: N_9  and  C_10
REMARK    5  A    between atoms: C_10  and  N_12
REMARK    6  A    between atoms: N_12  and  N_13
REMARK    7  A    between atoms: C_14  and  C_16
REMARK    8  A    between atoms: C_19  and  C_20
REMARK                            x       y       z     vdW  Elec       q    Type
REMARK                         _______ _______ _______ _____ _____    ______ ____
ROOT
ATOM      1  C   UNL     1      27.951 -10.281  33.330  0.00  0.00    +0.000 C 
ATOM      2  S   UNL     1      28.008 -11.864  33.671  0.00  0.00    +0.000 S 
ENDROOT
BRANCH   1   5
ATOM      3  C   UNL     1      25.682  -9.364  34.029  0.00  0.00    +0.000 C 
ATOM      4  O   UNL     1      24.985  -8.582  34.750  0.00  0.00    +0.000 OA
ATOM      5  N   UNL     1      27.146  -9.378  34.163  0.00  0.00    +0.000 N 
ATOM      6  H   UNL     1      27.602  -8.761  34.834  0.00  0.00    +0.000 HD
BRANCH   3  10
ATOM      7  C   UNL     1      24.370 -10.493  29.277  0.00  0.00    +0.000 A 
ATOM      8  C   UNL     1      24.362 -10.824  30.678  0.00  0.00    +0.000 A 
ATOM      9  C   UNL     1      25.007  -9.953  31.627  0.00  0.00    +0.000 A 
ATOM     10  C   UNL     1      25.001 -10.284  33.028  0.00  0.00    +0.000 A 
ATOM     11  C   UNL     1      24.350 -11.485  33.482  0.00  0.00    +0.000 A 
ATOM     12  C   UNL     1      23.724 -11.365  28.329  0.00  0.00    +0.000 A 
BRANCH   7  14
ATOM     13  C   UNL     1      25.324  -9.146  27.454  0.00  0.00    +0.000 C 
ATOM     14  O   UNL     1      25.012  -9.309  28.829  0.00  0.00    +0.000 OA
ENDBRANCH   7  14
ENDBRANCH   3  10
ENDBRANCH   1   5
BRANCH   1  15
ATOM     15  N   UNL     1      28.707  -9.749  32.186  0.00  0.00    +0.000 N 
ATOM     16  H   UNL     1      29.585 -10.187  31.907  0.00  0.00    +0.000 HD
BRANCH  15  17
ATOM     17  N   UNL     1      28.214  -8.626  31.470  0.00  0.00    +0.000 N 
ATOM     18  C   UNL     1      28.288  -8.600  30.003  0.00  0.00    +0.000 C 
ATOM     19  O   UNL     1      27.847  -7.595  29.362  0.00  0.00    +0.000 OA
ATOM     20  H   UNL     1      27.807  -7.838  31.974  0.00  0.00    +0.000 HD
BRANCH  18  21
ATOM     21  C   UNL     1      28.894  -9.775  29.251  0.00  0.00    +0.000 A 
ATOM     22  C   UNL     1      30.253  -9.705  28.780  0.00  0.00    +0.000 A 
ATOM     23  C   UNL     1      31.038  -8.521  29.020  0.00  0.00    +0.000 A 
ATOM     24  C   UNL     1      32.397  -8.451  28.548  0.00  0.00    +0.000 A 
ATOM     25  C   UNL     1      33.227  -7.203  28.802  0.00  0.00    +0.000 C 
ATOM     26  C   UNL     1      32.971  -9.564  27.837  0.00  0.00    +0.000 A 
ATOM     27  C   UNL     1      28.108 -10.957  29.011  0.00  0.00    +0.000 A 
ENDBRANCH  18  21
ENDBRANCH  15  17
ENDBRANCH   1  15
TORSDOF 6
ENDMDL
MODEL 9
REMARK VINA RESULT:    -6.610     19.453     22.046
REMARK INTER + INTRA:          -9.479
REMARK INTER:                  -7.531
REMARK INTRA:                  -1.947
REMARK UNBOUND:                -0.549
REMARK  Name = 
REMARK  8 active torsions:
REMARK  status: ('A' for Active; 'I' for Inactive)
REMARK    1  A    between atoms: C_1  and  O_2
REMARK    2  A    between atoms: O_2  and  C_3
REMARK    3  A    between atoms: C_6  and  C_7
REMARK    4  A    between atoms: N_9  and  C_10
REMARK    5  A    between atoms: C_10  and  N_12
REMARK    6  A    between atoms: N_12  and  N_13
REMARK    7  A    between atoms: C_14  and  C_16
REMARK    8  A    between atoms: C_19  and  C_20
REMARK                            x       y       z     vdW  Elec       q    Type
REMARK                         _______ _______ _______ _____ _____    ______ ____
ROOT
ATOM      1  C   UNL     1      29.700  -7.745  26.673  0.00  0.00    +0.000 C 
ATOM      2  S   UNL     1      30.681  -8.531  25.650  0.00  0.00    +0.000 S 
ENDROOT
BRANCH   1   5
ATOM      3  C   UNL     1      27.266  -8.449  26.914  0.00  0.00    +0.000 C 
ATOM      4  O   UNL     1      26.039  -8.288  26.622  0.00  0.00    +0.000 OA
ATOM      5  N   UNL     1      28.282  -7.559  26.335  0.00  0.00    +0.000 N 
ATOM      6  H   UNL     1      28.003  -6.812  25.699  0.00  0.00    +0.000 HD
BRANCH   3  10
ATOM      7  C   UNL     1      27.908 -10.217  31.609  0.00  0.00    +0.000 A 
ATOM      8  C   UNL     1      27.992 -10.417  30.185  0.00  0.00    +0.000 A 
ATOM      9  C   UNL     1      27.598  -9.363  29.286  0.00  0.00    +0.000 A 
ATOM     10  C   UNL     1      27.681  -9.562  27.862  0.00  0.00    +0.000 A 
ATOM     11  C   UNL     1      28.157 -10.815  27.337  0.00  0.00    +0.000 A 
ATOM     12  C   UNL     1      28.301 -11.272  32.507  0.00  0.00    +0.000 A 
BRANCH   7  14
ATOM     13  C   UNL     1      26.191  -8.922  32.801  0.00  0.00    +0.000 C 
ATOM     14  O   UNL     1      27.439  -8.981  32.127  0.00  0.00    +0.000 OA
ENDBRANCH   7  14
ENDBRANCH   3  10
ENDBRANCH   1   5
BRANCH   1  15
ATOM     15  N   UNL     1      30.230  -7.218  27.940  0.00  0.00    +0.000 N 
ATOM     16  H   UNL     1      29.599  -7.042  28.722  0.00  0.00    +0.000 HD
BRANCH  15  17
ATOM     17  N   UNL     1      31.619  -6.957  28.074  0.00  0.00    +0.000 N 
ATOM     18  C   UNL     1      32.406  -7.669  29.091  0.00  0.00    +0.000 C 
ATOM     19  O   UNL     1      33.649  -7.435  29.212  0.00  0.00    +0.000 OA
ATOM     20  H   UNL     1      32.070  -6.274  27.466  0.00  0.00    +0.000 HD
BRANCH  18  21
ATOM     21  C   UNL     1      31.732  -8.687  29.998  0.00  0.00    +0.000 A 
ATOM     22  C   UNL     1      31.573 -10.049  29.560  0.00  0.00    +0.000 A 
ATOM     23  C   UNL     1      32.053 -10.448  28.261  0.00  0.00    +0.000 A 
ATOM     24  C   UNL     1      31.894 -11.810  27.822  0.00  0.00    +0.000 A 
ATOM     25  C   UNL     1      32.401 -12.231  26.452  0.00  0.00    +0.000 C 
ATOM     26  C   UNL     1      31.257 -12.774  28.681  0.00  0.00    +0.000 A 
ATOM     27  C   UNL     1      31.253  -8.287  31.296  0.00  0.00    +0.000 A 
ENDBRANCH  18  21
ENDBRANCH  15  17
ENDBRANCH   1  15
TORSDOF 6
ENDMDL
MODEL 10
REMARK VINA RESULT:    -6.601     18.731     21.620
REMARK INTER + INTRA:          -9.465
REMARK INTER:                  -7.529
REMARK INTRA:                  -1.936
REMARK UNBOUND:                -0.549
REMARK  Name = 
REMARK  8 active torsions:
REMARK  status: ('A' for Active; 'I' for Inactive)
REMARK    1  A    between atoms: C_1  and  O_2
REMARK    2  A    between atoms: O_2  and  C_3
REMARK    3  A    between atoms: C_6  and  C_7
REMARK    4  A    between atoms: N_9  and  C_10
REMARK    5  A    between atoms: C_10  and  N_12
REMARK    6  A    between atoms: N_12  and  N_13
REMARK    7  A    between atoms: C_14  and  C_16
REMARK    8  A    between atoms: C_19  and  C_20
REMARK                            x       y       z     vdW  Elec       q    Type
REMARK                         _______ _______ _______ _____ _____    ______ ____
ROOT
ATOM      1  C   UNL     1      30.820  -7.614  27.278  0.00  0.00    +0.000 C 
ATOM      2  S   UNL     1      31.975  -8.700  26.947  0.00  0.00    +0.000 S 
ENDROOT
BRANCH   1   5
ATOM      3  C   UNL     1      28.795  -7.631  25.736  0.00  0.00    +0.000 C 
ATOM      4  O   UNL     1      28.125  -7.105  24.791  0.00  0.00    +0.000 OA
ATOM      5  N   UNL     1      30.047  -7.006  26.186  0.00  0.00    +0.000 N 
ATOM      6  H   UNL     1      30.379  -6.151  25.741  0.00  0.00    +0.000 HD
BRANCH   3  10
ATOM      7  C   UNL     1      25.829  -9.973  29.098  0.00  0.00    +0.000 A 
ATOM      8  C   UNL     1      26.829 -10.043  28.064  0.00  0.00    +0.000 A 
ATOM      9  C   UNL     1      27.299  -8.836  27.434  0.00  0.00    +0.000 A 
ATOM     10  C   UNL     1      28.299  -8.905  26.400  0.00  0.00    +0.000 A 
ATOM     11  C   UNL     1      28.829 -10.181  25.996  0.00  0.00    +0.000 A 
ATOM     12  C   UNL     1      25.359 -11.181  29.727  0.00  0.00    +0.000 A 
BRANCH   7  14
ATOM     13  C   UNL     1      25.010  -8.470  30.863  0.00  0.00    +0.000 C 
ATOM     14  O   UNL     1      25.306  -8.715  29.497  0.00  0.00    +0.000 OA
ENDBRANCH   7  14
ENDBRANCH   3  10
ENDBRANCH   1   5
BRANCH   1  15
ATOM     15  N   UNL     1      30.544  -7.237  28.673  0.00  0.00    +0.000 N 
ATOM     16  H   UNL     1      29.687  -6.735  28.905  0.00  0.00    +0.000 HD
BRANCH  15  17
ATOM     17  N   UNL     1      31.471  -7.572  29.695  0.00  0.00    +0.000 N 
ATOM     18  C   UNL     1      31.158  -8.647  30.647  0.00  0.00    +0.000 C 
ATOM     19  O   UNL     1      31.987  -8.947  31.562  0.00  0.00    +0.000 OA
ATOM     20  H   UNL     1      32.353  -7.067  29.769  0.00  0.00    +0.000 HD
BRANCH  18  21
ATOM     21  C   UNL     1      29.842  -9.401  30.537  0.00  0.00    +0.000 A 
ATOM     22  C   UNL     1      29.780 -10.640  29.806  0.00  0.00    +0.000 A 
ATOM     23  C   UNL     1      30.966 -11.166  29.180  0.00  0.00    +0.000 A 
ATOM     24  C   UNL     1      30.905 -12.405  28.449  0.00  0.00    +0.000 A 
ATOM     25  C   UNL     1      32.156 -12.961  27.789  0.00  0.00    +0.000 C 
ATOM     26  C   UNL     1      29.659 -13.120  28.345  0.00  0.00    +0.000 A 
ATOM     27  C   UNL     1      28.657  -8.874  31.163  0.00  0.00    +0.000 A 
ENDBRANCH  18  21
ENDBRANCH  15  17
ENDBRANCH   1  15
TORSDOF 6
ENDMDL
