REMARK  Name = 
REMARK  7 active torsions:
REMARK  status: ('A' for Active; 'I' for Inactive)
REMARK    1  A    between atoms: C_1  and  C_2
REMARK    2  A    between atoms: C_4  and  C_5
REMARK    3  A    between atoms: C_12  and  C_13
REMARK    4  A    between atoms: N_15  and  C_16
REMARK    5  A    between atoms: C_16  and  C_17
REMARK    6  A    between atoms: C_17  and  C_18
REMARK    7  A    between atoms: C_19  and  C_20
REMARK                            x       y       z     vdW  Elec       q    Type
REMARK                         _______ _______ _______ _____ _____    ______ ____
ROOT
ATOM      1  C   UNL     1       1.973  -0.932  -4.898  0.00  0.00    +0.000 C 
ATOM      2  O   UNL     1       2.396  -1.424  -5.991  0.00  0.00    +0.000 OA
ATOM      3  N   UNL     1       1.128   0.271  -4.913  0.00  0.00    +0.000 N 
ATOM      4  H   UNL     1       0.881   0.710  -5.800  0.00  0.00    +0.000 HD
ENDROOT
BRANCH   1  16
ATOM      5  C   UNL     1       0.928   0.058   0.038  0.00  0.00    +0.000 C 
ATOM      6  C   UNL     1       0.421   0.647   1.344  0.00  0.00    +0.000 A 
ATOM      7  C   UNL     1       0.769   0.027   2.597  0.00  0.00    +0.000 A 
ATOM      8  C   UNL     1       1.597  -1.151   2.611  0.00  0.00    +0.000 A 
ATOM      9  C   UNL     1       1.965  -1.806   3.933  0.00  0.00    +0.000 C 
ATOM     10  N   UNL     1       2.062  -1.691   1.414  0.00  0.00    +0.000 NA
ATOM     11  C   UNL     1       2.862  -2.830   1.428  0.00  0.00    +0.000 A 
ATOM     12  N   UNL     1       3.352  -3.400   0.165  0.00  0.00    +0.000 N 
ATOM     13  C   UNL     1       2.997  -2.767  -1.113  0.00  0.00    +0.000 A 
ATOM     14  N   UNL     1       2.196  -1.628  -1.128  0.00  0.00    +0.000 NA
ATOM     15  C   UNL     1       1.860  -1.028  -2.339  0.00  0.00    +0.000 A 
ATOM     16  C   UNL     1       2.340  -1.586  -3.577  0.00  0.00    +0.000 A 
ATOM     17  C   UNL     1       3.168  -2.764  -3.562  0.00  0.00    +0.000 A 
ATOM     18  N   UNL     1       3.461  -3.307  -2.311  0.00  0.00    +0.000 NA
ATOM     19  C   UNL     1      -0.407   1.826   1.330  0.00  0.00    +0.000 A 
ATOM     20  H   UNL     1       3.939  -4.235   0.175  0.00  0.00    +0.000 HD
ENDBRANCH   1  16
BRANCH   3  21
ATOM     21  C   UNL     1       0.638   0.841  -3.650  0.00  0.00    +0.000 C 
BRANCH  21  22
ATOM     22  C   UNL     1       1.144   2.267  -3.507  0.00  0.00    +0.000 C 
BRANCH  22  23
ATOM     23  C   UNL     1       0.638   3.104  -4.670  0.00  0.00    +0.000 A 
ATOM     24  C   UNL     1       0.986   2.744  -6.021  0.00  0.00    +0.000 A 
ATOM     25  C   UNL     1       1.860   1.529  -6.283  0.00  0.00    +0.000 C 
ATOM     26  N   UNL     1       0.521   3.511  -7.087  0.00  0.00    +0.000 N 
ATOM     27  C   UNL     1      -0.279   4.625  -6.847  0.00  0.00    +0.000 A 
ATOM     28  C   UNL     1      -0.627   4.984  -5.496  0.00  0.00    +0.000 A 
ATOM     29  F   UNL     1      -0.184   4.252  -4.478  0.00  0.00    +0.000 F 
ATOM     30  C   UNL     1      -1.455   6.136  -5.248  0.00  0.00    +0.000 A 
ATOM     31  C   UNL     1      -1.935   6.929  -6.350  0.00  0.00    +0.000 A 
ATOM     32  F   UNL     1      -2.700   7.993  -6.121  0.00  0.00    +0.000 F 
ATOM     33  C   UNL     1      -1.587   6.570  -7.701  0.00  0.00    +0.000 A 
ATOM     34  C   UNL     1      -0.759   5.418  -7.949  0.00  0.00    +0.000 A 
ATOM     35  H   UNL     1       0.768   3.257  -8.044  0.00  0.00    +0.000 HD
ENDBRANCH  22  23
ENDBRANCH  21  22
ENDBRANCH   3  21
TORSDOF 4
