REMARK  Name = 
REMARK  8 active torsions:
REMARK  status: ('A' for Active; 'I' for Inactive)
REMARK    1  A    between atoms: C_1  and  O_2
REMARK    2  A    between atoms: O_2  and  C_3
REMARK    3  A    between atoms: C_7  and  O_8
REMARK    4  A    between atoms: C_9  and  C_10
REMARK    5  A    between atoms: C_10  and  C_12
REMARK    6  A    between atoms: C_13  and  C_14
REMARK    7  A    between atoms: C_25  and  C_26
REMARK    8  A    between atoms: C_25  and  C_27
REMARK                            x       y       z     vdW  Elec       q    Type
REMARK                         _______ _______ _______ _____ _____    ______ ____
ROOT
ATOM      1  C   UNL     1       0.952   2.513   0.030  0.00  0.00    +0.000 A 
ATOM      2  C   UNL     1       0.472   3.744  -0.543  0.00  0.00    +0.000 A 
ATOM      3  C   UNL     1      -0.356   3.715  -1.721  0.00  0.00    +0.000 A 
ATOM      4  C   UNL     1      -0.704   2.455  -2.326  0.00  0.00    +0.000 A 
ATOM      5  C   UNL     1      -0.224   1.224  -1.753  0.00  0.00    +0.000 A 
ATOM      6  C   UNL     1       1.780   2.542   1.208  0.00  0.00    +0.000 A 
ATOM      7  C   UNL     1      -1.578   2.424  -3.570  0.00  0.00    +0.000 C 
ATOM      8  C   UNL     1      -2.031   3.587  -4.111  0.00  0.00    +0.000 C 
ATOM      9  C   UNL     1      -2.905   3.557  -5.354  0.00  0.00    +0.000 C 
ATOM     10  C   UNL     1      -2.221   4.325  -6.473  0.00  0.00    +0.000 C 
ATOM     11  C   UNL     1      -3.121   2.116  -5.787  0.00  0.00    +0.000 C 
ATOM     12  O   UNL     1      -0.829   4.928  -2.287  0.00  0.00    +0.000 OA
ENDROOT
BRANCH   1  14
ATOM     13  C   UNL     1       1.082   0.057  -0.002  0.00  0.00    +0.000 C 
ATOM     14  O   UNL     1       0.609   1.270  -0.567  0.00  0.00    +0.000 OA
ENDBRANCH   1  14
BRANCH   5  15
ATOM     15  O   UNL     1       0.592   1.252  -0.592  0.00  0.00    +0.000 OA
ATOM     16  H   UNL     1       0.926   0.398  -0.194  0.00  0.00    +0.000 HD
ENDBRANCH   5  15
BRANCH   6  17
ATOM     17  C   UNL     1       2.287   1.242   1.813  0.00  0.00    +0.000 C 
ATOM     18  O   UNL     1       1.980   0.131   1.279  0.00  0.00    +0.000 OA
BRANCH  17  19
ATOM     19  C   UNL     1       3.161   1.273   3.056  0.00  0.00    +0.000 C 
ATOM     20  C   UNL     1       3.489   2.463   3.627  0.00  0.00    +0.000 C 
BRANCH  20  21
ATOM     21  C   UNL     1       4.363   2.493   4.871  0.00  0.00    +0.000 A 
ATOM     22  C   UNL     1       4.843   1.262   5.444  0.00  0.00    +0.000 A 
ATOM     23  C   UNL     1       4.495   0.003   4.839  0.00  0.00    +0.000 A 
ATOM     24  C   UNL     1       4.975  -1.228   5.412  0.00  0.00    +0.000 A 
ATOM     25  C   UNL     1       5.803  -1.200   6.590  0.00  0.00    +0.000 A 
ATOM     26  C   UNL     1       4.711   3.753   5.476  0.00  0.00    +0.000 A 
ATOM     27  O   UNL     1       6.277  -2.413   7.155  0.00  0.00    +0.000 OA
ATOM     28  C   UNL     1       7.093  -2.385   8.316  0.00  0.00    +0.000 C 
ATOM     29  O   UNL     1       4.632  -2.471   4.815  0.00  0.00    +0.000 OA
ENDBRANCH  20  21
ENDBRANCH  17  19
ENDBRANCH   6  17
TORSDOF 5
