REMARK  Name = 
REMARK  9 active torsions:
REMARK  status: ('A' for Active; 'I' for Inactive)
REMARK    1  A    between atoms: C_1  and  O_2
REMARK    2  A    between atoms: O_2  and  C_3
REMARK    3  A    between atoms: C_7  and  C_8
REMARK    4  A    between atoms: C_10  and  N_11
REMARK    5  A    between atoms: C_12  and  C_14
REMARK    6  A    between atoms: C_18  and  S_19
REMARK    7  A    between atoms: S_19  and  C_20
REMARK    8  A    between atoms: C_20  and  C_21
REMARK    9  A    between atoms: C_21  and  O_23
REMARK                            x       y       z     vdW  Elec       q    Type
REMARK                         _______ _______ _______ _____ _____    ______ ____
ROOT
ATOM      1  C   UNL     1       0.886   0.172  -0.026  0.00  0.00    +0.000 A 
ATOM      2  C   UNL     1       0.538   1.551  -0.253  0.00  0.00    +0.000 A 
ATOM      3  C   UNL     1       1.018   2.231  -1.428  0.00  0.00    +0.000 A 
ATOM      4  C   UNL     1       0.670   3.610  -1.655  0.00  0.00    +0.000 A 
ATOM      5  C   UNL     1      -0.158   4.309  -0.707  0.00  0.00    +0.000 A 
ATOM      6  C   UNL     1      -0.506   5.688  -0.933  0.00  0.00    +0.000 A 
ATOM      7  C   UNL     1      -1.334   6.387   0.015  0.00  0.00    +0.000 A 
ATOM      8  N   UNL     1      -1.798   5.730   1.152  0.00  0.00    +0.000 NA
ATOM      9  C   UNL     1       1.150   4.290  -2.831  0.00  0.00    +0.000 A 
ATOM     10  C   UNL     1       0.406  -0.508   1.149  0.00  0.00    +0.000 A 
ATOM     11  C   UNL     1      -1.701   7.843  -0.224  0.00  0.00    +0.000 C 
ATOM     12  C   UNL     1      -0.434   8.680  -0.293  0.00  0.00    +0.000 C 
ATOM     13  C   UNL     1       0.440   8.184  -1.434  0.00  0.00    +0.000 C 
ATOM     14  C   UNL     1       0.001   6.406  -2.174  0.00  0.00    +0.000 C 
ENDROOT
BRANCH   1  16
ATOM     15  N   UNL     1       2.115  -1.974  -0.796  0.00  0.00    +0.000 N 
ATOM     16  C   UNL     1       1.760  -0.566  -1.027  0.00  0.00    +0.000 C 
ATOM     17  O   UNL     1       2.184   0.034  -2.065  0.00  0.00    +0.000 OA
ATOM     18  H   UNL     1       2.701  -2.469  -1.468  0.00  0.00    +0.000 HD
BRANCH  15  26
ATOM     19  C   UNL     1       0.797  -1.968   1.352  0.00  0.00    +0.000 A 
ATOM     20  C   UNL     1       0.317  -2.648   2.528  0.00  0.00    +0.000 A 
ATOM     21  C   UNL     1      -0.511  -1.949   3.476  0.00  0.00    +0.000 A 
ATOM     22 CL   UNL     1      -1.104  -2.789   4.929  0.00  0.00    +0.000 Cl
ATOM     23  C   UNL     1      -0.859  -0.570   3.249  0.00  0.00    +0.000 A 
ATOM     24  C   UNL     1      -0.352   0.147   2.009  0.00  0.00    +0.000 C 
ATOM     25  C   UNL     1      -1.687   0.129   4.198  0.00  0.00    +0.000 A 
ATOM     26  C   UNL     1       1.625  -2.667   0.404  0.00  0.00    +0.000 A 
BRANCH  19  28
ATOM     27  C   UNL     1       0.927   0.062  -0.030  0.00  0.00    +0.000 C 
ATOM     28  O   UNL     1       0.454  -0.609   1.129  0.00  0.00    +0.000 OA
ENDBRANCH  19  28
ENDBRANCH  15  26
ENDBRANCH   1  16
BRANCH   5  29
ATOM     29  S   UNL     1      -0.761   3.454   0.771  0.00  0.00    +0.000 S 
BRANCH  29  30
ATOM     30  C   UNL     1      -0.158   1.748   0.769  0.00  0.00    +0.000 C 
BRANCH  30  31
ATOM     31  C   UNL     1      -0.664   1.033  -0.472  0.00  0.00    +0.000 C 
ATOM     32  O   UNL     1       0.161   0.550  -1.309  0.00  0.00    +0.000 OA
BRANCH  31  33
ATOM     33  O   UNL     1      -2.061   0.903  -0.697  0.00  0.00    +0.000 OA
ATOM     34  H   UNL     1      -2.394   0.432  -1.514  0.00  0.00    +0.000 HD
ENDBRANCH  31  33
ENDBRANCH  30  31
ENDBRANCH  29  30
ENDBRANCH   5  29
TORSDOF 7
