REMARK  Name = 
REMARK  7 active torsions:
REMARK  status: ('A' for Active; 'I' for Inactive)
REMARK    1  A    between atoms: C_1  and  O_2
REMARK    2  A    between atoms: O_2  and  C_3
REMARK    3  A    between atoms: C_6  and  C_7
REMARK    4  A    between atoms: C_12  and  C_14
REMARK    5  A    between atoms: C_14  and  N_15
REMARK    6  A    between atoms: C_28  and  O_29
REMARK    7  A    between atoms: O_29  and  C_30
REMARK                            x       y       z     vdW  Elec       q    Type
REMARK                         _______ _______ _______ _____ _____    ______ ____
ROOT
ATOM      1  C   UNL     1      -1.734   1.441   5.751  0.00  0.00    +0.000 A 
ATOM      2  C   UNL     1      -2.082   2.475   4.810  0.00  0.00    +0.000 A 
ATOM      3  S   UNL     1      -1.510   2.393   3.195  0.00  0.00    +0.000 S 
ATOM      4  C   UNL     1      -0.524   1.080   2.700  0.00  0.00    +0.000 A 
ATOM      5  N   UNL     1      -0.034   1.010   1.316  0.00  0.00    +0.000 N 
ATOM      6  C   UNL     1      -0.389   2.065   0.356  0.00  0.00    +0.000 C 
ATOM      7  O   UNL     1       0.034   2.004  -0.840  0.00  0.00    +0.000 OA
ATOM      8  N   UNL     1      -2.198   1.507   7.062  0.00  0.00    +0.000 NA
ATOM      9  H   UNL     1       0.552   0.229   1.022  0.00  0.00    +0.000 HD
ENDROOT
BRANCH   1  13
ATOM     10  C   UNL     1       0.928  -0.963   2.184  0.00  0.00    +0.000 A 
ATOM     11  C   UNL     1       0.448  -0.894   3.540  0.00  0.00    +0.000 A 
ATOM     12  C   UNL     1      -0.380   0.208   3.956  0.00  0.00    +0.000 A 
ATOM     13  C   UNL     1      -0.860   0.277   5.312  0.00  0.00    +0.000 A 
ATOM     14  C   UNL     1      -0.512  -0.757   6.252  0.00  0.00    +0.000 A 
ATOM     15  C   UNL     1       1.756  -2.066   1.768  0.00  0.00    +0.000 A 
BRANCH  10  17
ATOM     16  C   UNL     1       1.058  -0.011  -0.080  0.00  0.00    +0.000 C 
ATOM     17  O   UNL     1       0.585   0.056   1.257  0.00  0.00    +0.000 OA
ENDBRANCH  10  17
BRANCH  15  18
ATOM     18  O   UNL     1       2.229  -2.133   0.431  0.00  0.00    +0.000 OA
ATOM     19  C   UNL     1       3.046  -3.221   0.021  0.00  0.00    +0.000 C 
ENDBRANCH  15  18
ENDBRANCH   1  13
BRANCH   6  20
ATOM     20  C   UNL     1      -1.263   3.229   0.795  0.00  0.00    +0.000 C 
BRANCH  20  21
ATOM     21  N   UNL     1      -2.562   2.719   1.259  0.00  0.00    +0.000 N 
ATOM     22  C   UNL     1      -3.421   1.955   0.343  0.00  0.00    +0.000 C 
ATOM     23  O   UNL     1      -3.041   1.735  -0.850  0.00  0.00    +0.000 OA
ATOM     24  C   UNL     1      -4.764   1.428   0.822  0.00  0.00    +0.000 C 
ATOM     25  C   UNL     1      -5.637   2.592   1.261  0.00  0.00    +0.000 C 
ATOM     26  C   UNL     1      -5.853   3.534   0.088  0.00  0.00    +0.000 C 
ATOM     27  C   UNL     1      -7.112   3.780  -0.364  0.00  0.00    +0.000 C 
ATOM     28  C   UNL     1      -7.327   4.723  -1.537  0.00  0.00    +0.000 C 
ATOM     29  C   UNL     1      -4.548   0.485   1.995  0.00  0.00    +0.000 C 
ATOM     30  C   UNL     1      -3.001   2.973   2.639  0.00  0.00    +0.000 C 
ATOM     31  O   UNL     1      -2.258   3.633   3.431  0.00  0.00    +0.000 OA
ENDBRANCH  20  21
ENDBRANCH   6  20
TORSDOF 5
