REMARK  Name = 
REMARK  10 active torsions:
REMARK  status: ('A' for Active; 'I' for Inactive)
REMARK    1  A    between atoms: C_2  and  C_3
REMARK    2  A    between atoms: C_2  and  C_4
REMARK    3  A    between atoms: N_6  and  C_7
REMARK    4  A    between atoms: C_11  and  C_12
REMARK    5  A    between atoms: C_18  and  C_19
REMARK    6  A    between atoms: C_23  and  C_25
REMARK    7  A    between atoms: C_25  and  C_26
REMARK    8  A    between atoms: C_26  and  C_27
REMARK    9  A    between atoms: C_27  and  C_28
REMARK   10  A    between atoms: C_28  and  C_29
REMARK                            x       y       z     vdW  Elec       q    Type
REMARK                         _______ _______ _______ _____ _____    ______ ____
ROOT
ATOM      1  C   UNL     1       0.400   0.569  -1.022  0.00  0.00    +0.000 C 
ATOM      2  N   UNL     1       1.058   1.051  -2.055  0.00  0.00    +0.000 NA
ATOM      3  O   UNL     1       2.428   1.051  -2.055  0.00  0.00    +0.000 OA
ATOM      4  C   UNL     1       3.138   1.571  -3.169  0.00  0.00    +0.000 C 
ATOM      5  C   UNL     1       1.160   0.013   0.171  0.00  0.00    +0.000 C 
ATOM      6  C   UNL     1       4.632   1.454  -2.917  0.00  0.00    +0.000 C 
ATOM      7  C   UNL     1       5.000   2.241  -1.670  0.00  0.00    +0.000 C 
ATOM      8  N   UNL     1       6.445   2.128  -1.427  0.00  0.00    +0.000 N 
ATOM      9  C   UNL     1       7.051   0.807  -1.204  0.00  0.00    +0.000 C 
ATOM     10  O   UNL     1       6.326  -0.236  -1.222  0.00  0.00    +0.000 OA
ATOM     11  C   UNL     1       2.771   3.033  -3.367  0.00  0.00    +0.000 C 
ENDROOT
BRANCH   1  16
ATOM     12  C   UNL     1      -1.120  -1.540   3.499  0.00  0.00    +0.000 A 
ATOM     13  C   UNL     1      -1.840  -1.013   2.369  0.00  0.00    +0.000 A 
ATOM     14  C   UNL     1      -1.120  -0.485   1.238  0.00  0.00    +0.000 A 
ATOM     15  C   UNL     1      -1.840   0.042   0.108  0.00  0.00    +0.000 A 
ATOM     16  C   UNL     1      -1.120   0.569  -1.022  0.00  0.00    +0.000 A 
ATOM     17  C   UNL     1      -1.840  -2.067   4.629  0.00  0.00    +0.000 A 
BRANCH  12  20
ATOM     18  C   UNL     1       1.085  -1.002   2.345  0.00  0.00    +0.000 C 
ATOM     19  O   UNL     1       2.356  -1.002   2.345  0.00  0.00    +0.000 OA
ATOM     20  N   UNL     1       0.350  -1.540   3.499  0.00  0.00    +0.000 N 
ATOM     21  H   UNL     1       0.860  -1.914   4.299  0.00  0.00    +0.000 HD
BRANCH  18  23
ATOM     22  C   UNL     1       1.005   0.053   0.085  0.00  0.00    +0.000 C 
ATOM     23  C   UNL     1       0.325  -0.445   1.152  0.00  0.00    +0.000 C 
ATOM     24  C   UNL     1      -1.195  -0.445   1.152  0.00  0.00    +0.000 C 
ENDBRANCH  18  23
ENDBRANCH  12  20
ENDBRANCH   1  16
BRANCH   7  25
ATOM     25  C   UNL     1       4.240   1.685  -0.478  0.00  0.00    +0.000 C 
ATOM     26  N   UNL     1       4.975   1.146   0.676  0.00  0.00    +0.000 N 
ATOM     27  O   UNL     1       2.969   1.685  -0.478  0.00  0.00    +0.000 OA
ATOM     28  H   UNL     1       4.465   0.773   1.477  0.00  0.00    +0.000 HD
ATOM     29  H   UNL     1       5.995   1.146   0.676  0.00  0.00    +0.000 HD
ENDBRANCH   7  25
BRANCH   9  30
ATOM     30  C   UNL     1       8.546   0.690  -0.953  0.00  0.00    +0.000 C 
BRANCH  30  31
ATOM     31  C   UNL     1       9.306   1.246  -2.146  0.00  0.00    +0.000 C 
BRANCH  31  32
ATOM     32  C   UNL     1       8.938   2.708  -2.343  0.00  0.00    +0.000 C 
BRANCH  32  33
ATOM     33  C   UNL     1       9.306   3.496  -1.096  0.00  0.00    +0.000 C 
ATOM     34  C   UNL     1      10.800   3.378  -0.844  0.00  0.00    +0.000 C 
ENDBRANCH  32  33
ENDBRANCH  31  32
ENDBRANCH  30  31
ENDBRANCH   9  30
TORSDOF 8
