REMARK  Name = 
REMARK  11 active torsions:
REMARK  status: ('A' for Active; 'I' for Inactive)
REMARK    1  A    between atoms: C_1  and  O_2
REMARK    2  A    between atoms: O_2  and  C_3
REMARK    3  A    between atoms: C_5  and  N_6
REMARK    4  A    between atoms: N_13  and  C_14
REMARK    5  A    between atoms: C_15  and  C_16
REMARK    6  A    between atoms: C_20  and  C_21
REMARK    7  A    between atoms: C_35  and  O_36
REMARK    8  A    between atoms: O_36  and  C_37
REMARK    9  A    between atoms: C_37  and  C_38
REMARK   10  A    between atoms: C_38  and  N_39
REMARK   11  A    between atoms: N_42  and  C_43
REMARK                            x       y       z     vdW  Elec       q    Type
REMARK                         _______ _______ _______ _____ _____    ______ ____
ROOT
ATOM      1  N   UNL     1      -0.954  -5.039  -1.830  0.00  0.00    +0.000 N 
ATOM      2  C   UNL     1      -1.799  -5.858  -0.949  0.00  0.00    +0.000 A 
ATOM      3  N   UNL     1      -2.136  -5.396   0.321  0.00  0.00    +0.000 NA
ATOM      4  C   UNL     1      -2.936  -6.172   1.155  0.00  0.00    +0.000 A 
ATOM      5  C   UNL     1      -3.416  -7.453   0.705  0.00  0.00    +0.000 A 
ATOM      6  C   UNL     1      -3.069  -7.931  -0.609  0.00  0.00    +0.000 A 
ATOM      7  O   UNL     1      -2.338  -7.223  -1.370  0.00  0.00    +0.000 OA
ATOM      8  N   UNL     1      -3.533  -9.170  -1.044  0.00  0.00    +0.000 N 
ATOM      9  C   UNL     1      -3.196  -9.633  -2.314  0.00  0.00    +0.000 A 
ATOM     10  N   UNL     1      -3.661 -10.871  -2.750  0.00  0.00    +0.000 NA
ATOM     11  C   UNL     1      -3.324 -11.334  -4.020  0.00  0.00    +0.000 A 
ATOM     12  C   UNL     1      -3.804 -12.615  -4.470  0.00  0.00    +0.000 A 
ATOM     13  C   UNL     1      -4.632 -13.417  -3.608  0.00  0.00    +0.000 A 
ATOM     14  C   UNL     1      -5.112 -14.698  -4.058  0.00  0.00    +0.000 A 
ATOM     15  C   UNL     1      -5.940 -15.501  -3.196  0.00  0.00    +0.000 A 
ATOM     16  C   UNL     1      -2.496 -10.531  -4.883  0.00  0.00    +0.000 A 
ATOM     17  N   UNL     1      -2.396  -8.856  -3.149  0.00  0.00    +0.000 N 
ATOM     18  C   UNL     1      -4.244  -8.256   1.567  0.00  0.00    +0.000 A 
ATOM     19  N   UNL     1      -2.263  -7.097  -1.385  0.00  0.00    +0.000 NA
ATOM     20  H   UNL     1      -0.708  -5.378  -2.760  0.00  0.00    +0.000 HD
ENDROOT
BRANCH   8  21
ATOM     21  C   UNL     1      -4.378  -9.989  -0.164  0.00  0.00    +0.000 A 
ATOM     22  C   UNL     1      -4.726  -9.511   1.149  0.00  0.00    +0.000 A 
ATOM     23  C   UNL     1      -4.219  -8.159   1.625  0.00  0.00    +0.000 C 
ATOM     24  C   UNL     1      -5.554 -10.314   2.012  0.00  0.00    +0.000 A 
ATOM     25  C   UNL     1      -6.034 -11.595   1.562  0.00  0.00    +0.000 A 
ATOM     26  C   UNL     1      -6.862 -12.398   2.424  0.00  0.00    +0.000 A 
ATOM     27  C   UNL     1      -4.858 -11.270  -0.614  0.00  0.00    +0.000 A 
ATOM     28  C   UNL     1      -4.491 -11.775  -2.000  0.00  0.00    +0.000 C 
ENDBRANCH   8  21
BRANCH   1  31
ATOM     29  C   UNL     1       0.844  -1.648  -1.782  0.00  0.00    +0.000 A 
ATOM     30  C   UNL     1       0.364  -2.929  -2.233  0.00  0.00    +0.000 A 
ATOM     31  C   UNL     1      -0.464  -3.732  -1.370  0.00  0.00    +0.000 A 
ATOM     32  C   UNL     1      -0.812  -3.253  -0.057  0.00  0.00    +0.000 A 
ATOM     33  C   UNL     1      -0.332  -1.972   0.394  0.00  0.00    +0.000 A 
ATOM     34  C   UNL     1       1.672  -0.845  -2.645  0.00  0.00    +0.000 A 
BRANCH  29  36
ATOM     35  C   UNL     1       0.974   0.087  -0.043  0.00  0.00    +0.000 C 
ATOM     36  O   UNL     1       0.501  -1.176  -0.487  0.00  0.00    +0.000 OA
ENDBRANCH  29  36
BRANCH  34  37
ATOM     37  O   UNL     1       2.145   0.418  -2.201  0.00  0.00    +0.000 OA
BRANCH  37  38
ATOM     38  C   UNL     1       2.962   1.209  -3.051  0.00  0.00    +0.000 C 
BRANCH  38  39
ATOM     39  C   UNL     1       4.228   0.443  -3.395  0.00  0.00    +0.000 C 
BRANCH  39  40
ATOM     40  N   UNL     1       3.873  -0.808  -4.081  0.00  0.00    +0.000 NA
ATOM     41  C   UNL     1       3.028  -1.627  -3.201  0.00  0.00    +0.000 C 
ATOM     42  C   UNL     1       3.788  -1.948  -1.924  0.00  0.00    +0.000 C 
ATOM     43  N   UNL     1       4.143  -0.698  -1.238  0.00  0.00    +0.000 NA
ATOM     44  C   UNL     1       4.878  -1.008  -0.003  0.00  0.00    +0.000 C 
ATOM     45  C   UNL     1       4.988   0.122  -2.118  0.00  0.00    +0.000 C 
ATOM     46  C   UNL     1       5.098  -1.549  -4.413  0.00  0.00    +0.000 C 
ENDBRANCH  39  40
ENDBRANCH  38  39
ENDBRANCH  37  38
ENDBRANCH  34  37
ENDBRANCH   1  31
TORSDOF 7
