REMARK  Name = 
REMARK  7 active torsions:
REMARK  status: ('A' for Active; 'I' for Inactive)
REMARK    1  A    between atoms: C_1  and  O_2
REMARK    2  A    between atoms: O_2  and  C_3
REMARK    3  A    between atoms: C_6  and  C_7
REMARK    4  A    between atoms: C_7  and  C_8
REMARK    5  A    between atoms: C_8  and  N_9
REMARK    6  A    between atoms: C_16  and  O_17
REMARK    7  A    between atoms: O_17  and  C_18
REMARK                            x       y       z     vdW  Elec       q    Type
REMARK                         _______ _______ _______ _____ _____    ______ ____
ROOT
ATOM      1  C   UNL     1       0.859   2.150   1.328  0.00  0.00    +0.000 A 
ATOM      2  C   UNL     1       0.379   3.504   1.432  0.00  0.00    +0.000 A 
ATOM      3  C   UNL     1      -0.449   4.057   0.391  0.00  0.00    +0.000 A 
ATOM      4  C   UNL     1      -0.929   5.410   0.495  0.00  0.00    +0.000 A 
ATOM      5  C   UNL     1      -0.581   6.212   1.640  0.00  0.00    +0.000 A 
ATOM      6  C   UNL     1       1.687   1.598   2.369  0.00  0.00    +0.000 A 
ENDROOT
BRANCH   1   8
ATOM      7  C   UNL     1       0.990   0.025   0.096  0.00  0.00    +0.000 C 
ATOM      8  O   UNL     1       0.516   1.360   0.199  0.00  0.00    +0.000 OA
ENDBRANCH   1   8
BRANCH   4   9
ATOM      9  C   UNL     1      -1.803   5.994  -0.603  0.00  0.00    +0.000 C 
BRANCH   9  10
ATOM     10  C   UNL     1      -3.145   6.402  -0.019  0.00  0.00    +0.000 C 
BRANCH  10  11
ATOM     11  N   UNL     1      -2.937   7.412   1.029  0.00  0.00    +0.000 N 
ATOM     12  C   UNL     1      -2.163   7.106   2.146  0.00  0.00    +0.000 A 
ATOM     13  C   UNL     1      -1.567   5.801   2.274  0.00  0.00    +0.000 A 
ATOM     14  N   UNL     1      -0.793   5.496   3.391  0.00  0.00    +0.000 N 
ATOM     15  C   UNL     1      -3.513   8.673   0.905  0.00  0.00    +0.000 A 
ATOM     16  O   UNL     1      -4.219   8.952  -0.114  0.00  0.00    +0.000 OA
ATOM     17  H   UNL     1      -0.649   6.196   4.119  0.00  0.00    +0.000 HD
ENDBRANCH  10  11
ENDBRANCH   9  10
ENDBRANCH   4   9
BRANCH   6  18
ATOM     18  O   UNL     1       2.161   0.263   2.266  0.00  0.00    +0.000 OA
BRANCH  18  19
ATOM     19  C   UNL     1       2.977  -0.282   3.292  0.00  0.00    +0.000 C 
ATOM     20  C   UNL     1       2.217  -0.262   4.608  0.00  0.00    +0.000 C 
ATOM     21  C   UNL     1       0.950  -1.092   4.475  0.00  0.00    +0.000 C 
ATOM     22  C   UNL     1       1.318  -2.524   4.123  0.00  0.00    +0.000 C 
ATOM     23  C   UNL     1       4.244   0.548   3.426  0.00  0.00    +0.000 C 
ENDBRANCH  18  19
ENDBRANCH   6  18
TORSDOF 6
