REMARK  Name = 
REMARK  6 active torsions:
REMARK  status: ('A' for Active; 'I' for Inactive)
REMARK    1  A    between atoms: C_1  and  O_2
REMARK    2  A    between atoms: O_2  and  C_3
REMARK    3  A    between atoms: N_9  and  C_10
REMARK    4  A    between atoms: N_15  and  C_16
REMARK    5  A    between atoms: C_16  and  C_17
REMARK    6  A    between atoms: N_23  and  C_24
REMARK                            x       y       z     vdW  Elec       q    Type
REMARK                         _______ _______ _______ _____ _____    ______ ____
ROOT
ATOM      1  C   UNL     1       0.858   2.166  -1.113  0.00  0.00    +0.000 A 
ATOM      2  C   UNL     1       0.378   2.942  -2.227  0.00  0.00    +0.000 A 
ATOM      3  C   UNL     1      -0.450   2.325  -3.231  0.00  0.00    +0.000 A 
ATOM      4  C   UNL     1      -0.930   3.101  -4.345  0.00  0.00    +0.000 A 
ATOM      5  C   UNL     1      -0.582   4.494  -4.456  0.00  0.00    +0.000 A 
ATOM      6  C   UNL     1       1.686   2.784  -0.109  0.00  0.00    +0.000 A 
ATOM      7  N   UNL     1      -1.072   5.286  -5.593  0.00  0.00    +0.000 N 
ATOM      8  C   UNL     1      -1.918   4.656  -6.618  0.00  0.00    +0.000 C 
ATOM      9  C   UNL     1      -0.717   6.708  -5.706  0.00  0.00    +0.000 C 
ATOM     10  C   UNL     1      -1.171   7.441  -6.759  0.00  0.00    +0.000 C 
ATOM     11  S   UNL     1      -0.733   9.191  -6.898  0.00  0.00    +0.000 S 
ATOM     12  C   UNL     1      -1.483   9.883  -8.393  0.00  0.00    +0.000 C 
ATOM     13  N   UNL     1      -2.213   9.120  -9.176  0.00  0.00    +0.000 NA
ATOM     14  N   UNL     1      -1.274  11.299  -8.732  0.00  0.00    +0.000 N 
ATOM     15  C   UNL     1      -2.045   6.789  -7.818  0.00  0.00    +0.000 C 
ATOM     16  O   UNL     1      -2.352   5.560  -7.720  0.00  0.00    +0.000 OA
ATOM     17  S   UNL     1      -1.971   2.325  -5.606  0.00  0.00    +0.000 S 
ENDROOT
BRANCH  14  18
ATOM     18  C   UNL     1      -1.883  11.861  -9.946  0.00  0.00    +0.000 A 
ATOM     19  C   UNL     1      -1.679  13.247 -10.279  0.00  0.00    +0.000 A 
ATOM     20  C   UNL     1      -0.878  14.083  -9.421  0.00  0.00    +0.000 A 
ATOM     21  C   UNL     1      -0.674  15.469  -9.753  0.00  0.00    +0.000 A 
ATOM     22  C   UNL     1       0.126  16.305  -8.896  0.00  0.00    +0.000 A 
ATOM     23  C   UNL     1      -2.683  11.025 -10.804  0.00  0.00    +0.000 A 
ENDBRANCH  14  18
BRANCH   1  25
ATOM     24  C   UNL     1       0.988   0.028   0.095  0.00  0.00    +0.000 C 
ATOM     25  O   UNL     1       0.515   0.793  -1.003  0.00  0.00    +0.000 OA
ENDBRANCH   1  25
BRANCH  13  26
ATOM     26  C   UNL     1      -2.422   7.705  -8.837  0.00  0.00    +0.000 C 
BRANCH  26  27
ATOM     27  C   UNL     1      -1.079   6.994  -8.781  0.00  0.00    +0.000 A 
ATOM     28  C   UNL     1      -0.237   6.952  -9.949  0.00  0.00    +0.000 A 
ATOM     29  C   UNL     1      -0.667   7.583 -11.170  0.00  0.00    +0.000 A 
ATOM     30  C   UNL     1       0.175   7.541 -12.337  0.00  0.00    +0.000 A 
ATOM     31  C   UNL     1      -0.256   8.171 -13.559  0.00  0.00    +0.000 A 
ATOM     32  C   UNL     1      -0.649   6.364  -7.560  0.00  0.00    +0.000 A 
ENDBRANCH  26  27
ENDBRANCH  13  26
TORSDOF 4
