REMARK  Name = 
REMARK  0 active torsions:
REMARK  status: ('A' for Active; 'I' for Inactive)
REMARK                            x       y       z     vdW  Elec       q    Type
REMARK                         _______ _______ _______ _____ _____    ______ ____
ROOT
ATOM      1  O   UNL     1       1.052   0.085   0.009  0.00  0.00    +0.000 OA
ATOM      2  C   UNL     1       2.323   0.085   0.009  0.00  0.00    +0.000 C 
ATOM      3  N   UNL     1       3.058   1.354  -0.100  0.00  0.00    +0.000 N 
ATOM      4  C   UNL     1       2.323   2.622  -0.208  0.00  0.00    +0.000 C 
ATOM      5  O   UNL     1       2.958   3.719  -0.302  0.00  0.00    +0.000 OA
ATOM      6  C   UNL     1       0.803   2.622  -0.208  0.00  0.00    +0.000 A 
ATOM      7  C   UNL     1       0.082   1.379  -0.102  0.00  0.00    +0.000 A 
ATOM      8  C   UNL     1      -1.358   1.379  -0.102  0.00  0.00    +0.000 A 
ATOM      9  C   UNL     1      -2.078   0.137   0.004  0.00  0.00    +0.000 A 
ATOM     10  C   UNL     1      -1.358  -1.106   0.110  0.00  0.00    +0.000 A 
ATOM     11  C   UNL     1       0.082  -1.106   0.110  0.00  0.00    +0.000 A 
ATOM     12  C   UNL     1       0.803  -2.349   0.217  0.00  0.00    +0.000 A 
ATOM     13  C   UNL     1       2.243  -2.349   0.217  0.00  0.00    +0.000 A 
ATOM     14  C   UNL     1      -3.518   0.137   0.004  0.00  0.00    +0.000 A 
ATOM     15  N   UNL     1      -3.471   2.622  -0.208  0.00  0.00    +0.000 N 
ATOM     16  C   UNL     1      -2.078   2.622  -0.208  0.00  0.00    +0.000 A 
ATOM     17  C   UNL     1      -1.358   3.865  -0.314  0.00  0.00    +0.000 A 
ATOM     18  N   UNL     1      -2.054   5.067  -0.417  0.00  0.00    +0.000 N 
ATOM     19  C   UNL     1      -1.358   6.268  -0.520  0.00  0.00    +0.000 A 
ATOM     20  C   UNL     1       0.082   6.268  -0.520  0.00  0.00    +0.000 A 
ATOM     21  C   UNL     1       0.803   5.026  -0.414  0.00  0.00    +0.000 A 
ATOM     22  C   UNL     1       2.243   5.026  -0.414  0.00  0.00    +0.000 A 
ATOM     23  C   UNL     1       2.963   3.783  -0.308  0.00  0.00    +0.000 A 
ATOM     24  C   UNL     1       0.803   5.107  -0.421  0.00  0.00    +0.000 A 
ATOM     25  C   UNL     1       0.082   3.865  -0.314  0.00  0.00    +0.000 A 
ATOM     26  H   UNL     1       4.078   1.354  -0.100  0.00  0.00    +0.000 HD
ATOM     27  H   UNL     1      -3.981   3.502  -0.283  0.00  0.00    +0.000 HD
ATOM     28  H   UNL     1      -3.074   5.067  -0.417  0.00  0.00    +0.000 HD
ENDROOT
TORSDOF 0
