REMARK  Name = 
REMARK  10 active torsions:
REMARK  status: ('A' for Active; 'I' for Inactive)
REMARK    1  A    between atoms: C_1  and  O_2
REMARK    2  A    between atoms: O_2  and  C_3
REMARK    3  A    between atoms: C_6  and  C_7
REMARK    4  A    between atoms: N_8  and  N_9
REMARK    5  A    between atoms: C_10  and  C_12
REMARK    6  A    between atoms: C_23  and  O_24
REMARK    7  A    between atoms: O_24  and  S_25
REMARK    8  A    between atoms: S_25  and  C_28
REMARK    9  A    between atoms: C_31  and  N_32
REMARK   10  A    between atoms: C_33  and  C_34
REMARK                            x       y       z     vdW  Elec       q    Type
REMARK                         _______ _______ _______ _____ _____    ______ ____
ROOT
ATOM      1  C   UNL     1       0.852  -2.486  -0.450  0.00  0.00    +0.000 A 
ATOM      2  C   UNL     1       0.372  -3.784  -0.052  0.00  0.00    +0.000 A 
ATOM      3  C   UNL     1      -0.456  -3.918   1.119  0.00  0.00    +0.000 A 
ATOM      4  C   UNL     1      -0.936  -5.216   1.517  0.00  0.00    +0.000 A 
ATOM      5  C   UNL     1      -0.588  -6.380   0.744  0.00  0.00    +0.000 A 
ATOM      6  C   UNL     1       1.680  -2.352  -1.620  0.00  0.00    +0.000 A 
ENDROOT
BRANCH   1   8
ATOM      7  C   UNL     1       0.982  -0.058  -0.080  0.00  0.00    +0.000 C 
ATOM      8  O   UNL     1       0.509  -1.338   0.312  0.00  0.00    +0.000 OA
ENDBRANCH   1   8
BRANCH   4   9
ATOM      9  C   UNL     1      -1.810  -5.357   2.752  0.00  0.00    +0.000 C 
ATOM     10  N   UNL     1      -2.248  -6.543   3.116  0.00  0.00    +0.000 NA
BRANCH  10  11
ATOM     11  N   UNL     1      -3.065  -6.675   4.270  0.00  0.00    +0.000 N 
ATOM     12  C   UNL     1      -3.420  -5.487   5.059  0.00  0.00    +0.000 C 
ATOM     13  O   UNL     1      -4.151  -5.605   6.092  0.00  0.00    +0.000 OA
ATOM     14  H   UNL     1      -3.405  -7.595   4.552  0.00  0.00    +0.000 HD
BRANCH  12  15
ATOM     15  C   UNL     1      -2.913  -4.117   4.639  0.00  0.00    +0.000 A 
ATOM     16  C   UNL     1      -3.261  -2.952   5.412  0.00  0.00    +0.000 A 
ATOM     17  C   UNL     1      -4.089  -3.086   6.583  0.00  0.00    +0.000 A 
ATOM     18  C   UNL     1      -4.437  -1.922   7.356  0.00  0.00    +0.000 A 
ATOM     19  C   UNL     1      -3.957  -0.624   6.958  0.00  0.00    +0.000 A 
ATOM     20  C   UNL     1      -3.129  -0.490   5.787  0.00  0.00    +0.000 A 
ATOM     21  C   UNL     1      -2.649   0.808   5.389  0.00  0.00    +0.000 A 
ATOM     22  C   UNL     1      -1.821   0.942   4.219  0.00  0.00    +0.000 A 
ATOM     23  C   UNL     1      -5.265  -2.056   8.527  0.00  0.00    +0.000 A 
ATOM     24  C   UNL     1      -2.085  -3.983   3.468  0.00  0.00    +0.000 A 
ENDBRANCH  12  15
ENDBRANCH  10  11
ENDBRANCH   4   9
BRANCH   6  25
ATOM     25  O   UNL     1       2.153  -1.072  -2.013  0.00  0.00    +0.000 OA
BRANCH  25  26
ATOM     26  S   UNL     1       3.137  -0.913  -3.403  0.00  0.00    +0.000 S 
ATOM     27  O   UNL     1       4.412  -1.739  -3.223  0.00  0.00    +0.000 OA
ATOM     28  O   UNL     1       2.371  -1.416  -4.629  0.00  0.00    +0.000 OA
BRANCH  26  29
ATOM     29  C   UNL     1       3.574   0.828  -3.637  0.00  0.00    +0.000 A 
ATOM     30  C   UNL     1       4.402   1.219  -4.748  0.00  0.00    +0.000 A 
ATOM     31  C   UNL     1       4.882   0.226  -5.673  0.00  0.00    +0.000 A 
ATOM     32  C   UNL     1       5.710   0.617  -6.785  0.00  0.00    +0.000 A 
ATOM     33  C   UNL     1       6.058   2.002  -6.971  0.00  0.00    +0.000 A 
ATOM     34  C   UNL     1       3.094   1.822  -2.711  0.00  0.00    +0.000 A 
BRANCH  32  35
ATOM     35  N   UNL     1       6.200  -0.397  -7.729  0.00  0.00    +0.000 N 
ATOM     36  C   UNL     1       7.045   0.003  -8.864  0.00  0.00    +0.000 C 
ATOM     37  C   UNL     1       7.552  -1.046  -9.841  0.00  0.00    +0.000 C 
ATOM     38  O   UNL     1       7.352   1.225  -9.028  0.00  0.00    +0.000 OA
ATOM     39  H   UNL     1       5.953  -1.378  -7.598  0.00  0.00    +0.000 HD
ENDBRANCH  32  35
ENDBRANCH  26  29
ENDBRANCH  25  26
ENDBRANCH   6  25
TORSDOF 8
