REMARK  Name = 
REMARK  9 active torsions:
REMARK  status: ('A' for Active; 'I' for Inactive)
REMARK    1  A    between atoms: C_1  and  O_2
REMARK    2  A    between atoms: O_2  and  C_3
REMARK    3  A    between atoms: C_6  and  C_7
REMARK    4  A    between atoms: N_9  and  C_10
REMARK    5  A    between atoms: C_10  and  C_11
REMARK    6  A    between atoms: C_14  and  C_15
REMARK    7  A    between atoms: C_15  and  N_16
REMARK    8  A    between atoms: C_32  and  O_33
REMARK    9  A    between atoms: O_33  and  C_34
REMARK                            x       y       z     vdW  Elec       q    Type
REMARK                         _______ _______ _______ _____ _____    ______ ____
ROOT
ATOM      1  C   UNL     1      -1.845   2.072   5.727  0.00  0.00    +0.000 C 
ATOM      2  N   UNL     1      -2.858   2.911   5.698  0.00  0.00    +0.000 NA
ATOM      3  N   UNL     1      -2.888   4.018   6.586  0.00  0.00    +0.000 N 
ATOM      4  C   UNL     1      -4.020   4.956   6.553  0.00  0.00    +0.000 C 
ATOM      5  O   UNL     1      -5.068   4.273   6.782  0.00  0.00    +0.000 OA
ATOM      6  C   UNL     1      -4.053   6.141   7.504  0.00  0.00    +0.000 C 
ATOM      7  C   UNL     1      -4.032   5.641   8.939  0.00  0.00    +0.000 C 
ATOM      8  C   UNL     1      -5.245   4.759   9.186  0.00  0.00    +0.000 C 
ATOM      9  C   UNL     1      -6.148   5.098  10.146  0.00  0.00    +0.000 C 
ATOM     10  C   UNL     1      -7.361   4.217  10.394  0.00  0.00    +0.000 C 
ATOM     11  C   UNL     1      -2.840   7.022   7.257  0.00  0.00    +0.000 C 
ENDROOT
BRANCH   1  15
ATOM     12  C   UNL     1       0.817  -0.672   2.415  0.00  0.00    +0.000 A 
ATOM     13  C   UNL     1       0.337  -0.470   3.758  0.00  0.00    +0.000 A 
ATOM     14  C   UNL     1      -0.491   0.668   4.063  0.00  0.00    +0.000 A 
ATOM     15  C   UNL     1      -0.971   0.871   5.405  0.00  0.00    +0.000 A 
ATOM     16  C   UNL     1      -0.623  -0.065   6.443  0.00  0.00    +0.000 A 
ATOM     17  C   UNL     1       1.645  -1.810   2.110  0.00  0.00    +0.000 A 
BRANCH  12  19
ATOM     18  C   UNL     1       0.948   0.052   0.068  0.00  0.00    +0.000 C 
ATOM     19  O   UNL     1       0.474   0.251   1.392  0.00  0.00    +0.000 OA
ENDBRANCH  12  19
BRANCH  17  20
ATOM     20  O   UNL     1       2.119  -2.010   0.786  0.00  0.00    +0.000 OA
ATOM     21  C   UNL     1       2.935  -3.132   0.485  0.00  0.00    +0.000 C 
ENDBRANCH  17  20
ENDBRANCH   1  15
BRANCH   3  22
ATOM     22  C   UNL     1      -1.788   4.228   7.538  0.00  0.00    +0.000 C 
BRANCH  22  23
ATOM     23  C   UNL     1      -0.485   4.404   6.775  0.00  0.00    +0.000 A 
ATOM     24  C   UNL     1      -0.006   3.353   5.915  0.00  0.00    +0.000 A 
ATOM     25  C   UNL     1      -0.761   2.135   5.778  0.00  0.00    +0.000 A 
ATOM     26  C   UNL     1      -0.282   1.083   4.918  0.00  0.00    +0.000 A 
ATOM     27  C   UNL     1       0.953   1.251   4.196  0.00  0.00    +0.000 A 
ATOM     28  C   UNL     1       0.270   5.623   6.913  0.00  0.00    +0.000 A 
BRANCH  26  29
ATOM     29  C   UNL     1      -1.079  -0.203   4.773  0.00  0.00    +0.000 C 
BRANCH  29  30
ATOM     30  N   UNL     1      -1.463  -0.385   3.366  0.00  0.00    +0.000 N 
ATOM     31  C   UNL     1      -2.250   0.572   2.730  0.00  0.00    +0.000 A 
ATOM     32  C   UNL     1      -2.687   1.740   3.450  0.00  0.00    +0.000 A 
ATOM     33  N   UNL     1      -3.474   2.697   2.814  0.00  0.00    +0.000 NA
ATOM     34  C   UNL     1      -1.041  -1.515   2.669  0.00  0.00    +0.000 A 
ENDBRANCH  29  30
ENDBRANCH  26  29
ENDBRANCH  22  23
ENDBRANCH   3  22
TORSDOF 7
