REMARK  Name = 
REMARK  11 active torsions:
REMARK  status: ('A' for Active; 'I' for Inactive)
REMARK    1  A    between atoms: C_1  and  O_2
REMARK    2  A    between atoms: O_2  and  C_3
REMARK    3  A    between atoms: C_6  and  C_7
REMARK    4  A    between atoms: N_9  and  C_10
REMARK    5  A    between atoms: C_10  and  C_11
REMARK    6  A    between atoms: C_11  and  O_12
REMARK    7  A    between atoms: O_12  and  C_13
REMARK    8  A    between atoms: C_13  and  C_14
REMARK    9  A    between atoms: C_14  and  N_15
REMARK   10  A    between atoms: C_29  and  O_30
REMARK   11  A    between atoms: O_30  and  C_31
REMARK                            x       y       z     vdW  Elec       q    Type
REMARK                         _______ _______ _______ _____ _____    ______ ____
ROOT
ATOM      1  C   UNL     1      -1.735   0.670  -5.890  0.00  0.00    +0.000 C 
ATOM      2  N   UNL     1      -2.809  -0.060  -6.097  0.00  0.00    +0.000 NA
ATOM      3  N   UNL     1      -3.175  -0.426  -7.420  0.00  0.00    +0.000 N 
ATOM      4  C   UNL     1      -4.375  -1.242  -7.652  0.00  0.00    +0.000 C 
ATOM      5  O   UNL     1      -5.356  -0.597  -7.165  0.00  0.00    +0.000 OA
ATOM      6  C   UNL     1      -4.767  -1.633  -9.067  0.00  0.00    +0.000 C 
ATOM      7  C   UNL     1      -5.011  -0.379  -9.891  0.00  0.00    +0.000 C 
ATOM      8  C   UNL     1      -6.132   0.431  -9.260  0.00  0.00    +0.000 C 
ATOM      9  C   UNL     1      -7.263   0.693  -9.969  0.00  0.00    +0.000 C 
ATOM     10  C   UNL     1      -8.385   1.503  -9.339  0.00  0.00    +0.000 C 
ATOM     11  C   UNL     1      -3.645  -2.442  -9.698  0.00  0.00    +0.000 C 
ENDROOT
BRANCH   1  15
ATOM     12  C   UNL     1       0.927   1.681  -1.710  0.00  0.00    +0.000 A 
ATOM     13  C   UNL     1       0.447   2.089  -3.005  0.00  0.00    +0.000 A 
ATOM     14  C   UNL     1      -0.381   1.200  -3.778  0.00  0.00    +0.000 A 
ATOM     15  C   UNL     1      -0.861   1.608  -5.074  0.00  0.00    +0.000 A 
ATOM     16  C   UNL     1      -0.513   2.905  -5.595  0.00  0.00    +0.000 A 
ATOM     17  C   UNL     1       1.755   2.570  -0.936  0.00  0.00    +0.000 A 
BRANCH  12  19
ATOM     18  C   UNL     1       1.058   0.001   0.082  0.00  0.00    +0.000 C 
ATOM     19  O   UNL     1       0.584   0.403  -1.195  0.00  0.00    +0.000 OA
ENDBRANCH  12  19
BRANCH  17  20
ATOM     20  O   UNL     1       2.229   2.168   0.341  0.00  0.00    +0.000 OA
ATOM     21  C   UNL     1       3.045   3.044   1.104  0.00  0.00    +0.000 C 
ENDBRANCH  17  20
ENDBRANCH   1  15
BRANCH   3  22
ATOM     22  C   UNL     1      -2.353   0.012  -8.557  0.00  0.00    +0.000 C 
BRANCH  22  23
ATOM     23  C   UNL     1      -1.196   0.858  -8.051  0.00  0.00    +0.000 C 
BRANCH  23  24
ATOM     24  O   UNL     1      -0.401   0.089  -7.161  0.00  0.00    +0.000 OA
BRANCH  24  25
ATOM     25  C   UNL     1      -1.195  -0.333  -6.062  0.00  0.00    +0.000 C 
BRANCH  25  26
ATOM     26  C   UNL     1      -1.740   0.884  -5.332  0.00  0.00    +0.000 C 
BRANCH  26  27
ATOM     27  N   UNL     1      -2.563   1.680  -6.254  0.00  0.00    +0.000 N 
ATOM     28  C   UNL     1      -1.999   2.207  -7.413  0.00  0.00    +0.000 A 
ATOM     29  C   UNL     1      -0.609   1.972  -7.709  0.00  0.00    +0.000 A 
ATOM     30  N   UNL     1      -0.045   2.499  -8.868  0.00  0.00    +0.000 NA
ATOM     31  C   UNL     1      -3.907   1.907  -5.968  0.00  0.00    +0.000 A 
ENDBRANCH  26  27
ENDBRANCH  25  26
ENDBRANCH  24  25
ENDBRANCH  23  24
ENDBRANCH  22  23
ENDBRANCH   3  22
TORSDOF 9
