MODEL 1
REMARK VINA RESULT:    -6.749      0.000      0.000
REMARK INTER + INTRA:         -10.529
REMARK INTER:                  -9.314
REMARK INTRA:                  -1.215
REMARK UNBOUND:                -1.215
REMARK  Name = 
REMARK  9 active torsions:
REMARK  status: ('A' for Active; 'I' for Inactive)
REMARK    1  A    between atoms: C_1  and  O_2
REMARK    2  A    between atoms: O_2  and  C_3
REMARK    3  A    between atoms: C_6  and  C_7
REMARK    4  A    between atoms: C_8  and  C_9
REMARK    5  A    between atoms: N_11  and  C_12
REMARK    6  A    between atoms: C_17  and  C_18
REMARK    7  A    between atoms: C_18  and  O_20
REMARK    8  A    between atoms: C_22  and  O_23
REMARK    9  A    between atoms: O_23  and  C_24
REMARK                            x       y       z     vdW  Elec       q    Type
REMARK                         _______ _______ _______ _____ _____    ______ ____
ROOT
ATOM      1  C   UNL     1      12.663   6.745  29.364  0.00  0.00    +0.000 C 
ATOM      2  O   UNL     1      13.170   7.900  29.207  0.00  0.00    +0.000 OA
ATOM      3  N   UNL     1      11.558   6.549  30.313  0.00  0.00    +0.000 N 
ATOM      4  H   UNL     1      11.197   7.340  30.845  0.00  0.00    +0.000 HD
ENDROOT
BRANCH   3   5
ATOM      5  C   UNL     1      10.973   5.213  30.494  0.00  0.00    +0.000 A 
ATOM      6  C   UNL     1       9.791   4.838  29.763  0.00  0.00    +0.000 A 
ATOM      7  C   UNL     1       9.181   5.773  28.853  0.00  0.00    +0.000 A 
ATOM      8  C   UNL     1       7.998   5.398  28.121  0.00  0.00    +0.000 A 
ATOM      9  C   UNL     1       7.388   6.334  27.212  0.00  0.00    +0.000 A 
ATOM     10  C   UNL     1      11.584   4.278  31.404  0.00  0.00    +0.000 A 
BRANCH  10  11
ATOM     11  C   UNL     1      12.832   4.673  32.176  0.00  0.00    +0.000 C 
ATOM     12  O   UNL     1      13.848   3.910  32.174  0.00  0.00    +0.000 OA
BRANCH  11  13
ATOM     13  O   UNL     1      12.863   5.896  32.898  0.00  0.00    +0.000 OA
ATOM     14  H   UNL     1      12.016   6.400  33.065  0.00  0.00    +0.000 HD
ENDBRANCH  11  13
ENDBRANCH  10  11
ENDBRANCH   3   5
BRANCH   1  16
ATOM     15  C   UNL     1      14.451   5.089  28.823  0.00  0.00    +0.000 C 
ATOM     16  C   UNL     1      13.202   5.566  28.570  0.00  0.00    +0.000 C 
BRANCH  15  20
ATOM     17  C   UNL     1      13.729   0.673  26.466  0.00  0.00    +0.000 A 
ATOM     18  C   UNL     1      14.615   1.732  26.872  0.00  0.00    +0.000 A 
ATOM     19  C   UNL     1      14.104   2.849  27.623  0.00  0.00    +0.000 A 
ATOM     20  C   UNL     1      14.990   3.910  28.029  0.00  0.00    +0.000 A 
ATOM     21  C   UNL     1      16.387   3.853  27.683  0.00  0.00    +0.000 A 
ATOM     22  C   UNL     1      14.241  -0.445  25.714  0.00  0.00    +0.000 A 
BRANCH  17  24
ATOM     23  C   UNL     1      11.414   1.272  25.890  0.00  0.00    +0.000 C 
ATOM     24  O   UNL     1      12.352   0.728  26.807  0.00  0.00    +0.000 OA
ENDBRANCH  17  24
BRANCH  22  25
ATOM     25  O   UNL     1      13.367  -1.491  25.313  0.00  0.00    +0.000 OA
ATOM     26  C   UNL     1      12.968  -1.602  23.956  0.00  0.00    +0.000 C 
ENDBRANCH  22  25
ENDBRANCH  15  20
ENDBRANCH   1  16
TORSDOF 7
ENDMDL
MODEL 2
REMARK VINA RESULT:    -6.395      2.317      4.586
REMARK INTER + INTRA:         -10.041
REMARK INTER:                  -8.909
REMARK INTRA:                  -1.132
REMARK UNBOUND:                -1.215
REMARK  Name = 
REMARK  9 active torsions:
REMARK  status: ('A' for Active; 'I' for Inactive)
REMARK    1  A    between atoms: C_1  and  O_2
REMARK    2  A    between atoms: O_2  and  C_3
REMARK    3  A    between atoms: C_6  and  C_7
REMARK    4  A    between atoms: C_8  and  C_9
REMARK    5  A    between atoms: N_11  and  C_12
REMARK    6  A    between atoms: C_17  and  C_18
REMARK    7  A    between atoms: C_18  and  O_20
REMARK    8  A    between atoms: C_22  and  O_23
REMARK    9  A    between atoms: O_23  and  C_24
REMARK                            x       y       z     vdW  Elec       q    Type
REMARK                         _______ _______ _______ _____ _____    ______ ____
ROOT
ATOM      1  C   UNL     1      12.981   5.118  28.742  0.00  0.00    +0.000 C 
ATOM      2  O   UNL     1      13.008   6.131  27.974  0.00  0.00    +0.000 OA
ATOM      3  N   UNL     1      13.896   5.041  29.889  0.00  0.00    +0.000 N 
ATOM      4  H   UNL     1      14.552   5.800  30.070  0.00  0.00    +0.000 HD
ENDROOT
BRANCH   3   5
ATOM      5  C   UNL     1      13.864   3.869  30.776  0.00  0.00    +0.000 A 
ATOM      6  C   UNL     1      14.658   2.708  30.466  0.00  0.00    +0.000 A 
ATOM      7  C   UNL     1      15.483   2.696  29.285  0.00  0.00    +0.000 A 
ATOM      8  C   UNL     1      16.277   1.534  28.975  0.00  0.00    +0.000 A 
ATOM      9  C   UNL     1      17.102   1.522  27.794  0.00  0.00    +0.000 A 
ATOM     10  C   UNL     1      13.038   3.882  31.956  0.00  0.00    +0.000 A 
BRANCH  10  11
ATOM     11  C   UNL     1      12.201   5.107  32.284  0.00  0.00    +0.000 C 
ATOM     12  O   UNL     1      10.936   5.012  32.352  0.00  0.00    +0.000 OA
BRANCH  11  13
ATOM     13  O   UNL     1      12.833   6.358  32.517  0.00  0.00    +0.000 OA
ATOM     14  H   UNL     1      13.483   6.722  31.850  0.00  0.00    +0.000 HD
ENDBRANCH  11  13
ENDBRANCH  10  11
ENDBRANCH   3   5
BRANCH   1  16
ATOM     15  C   UNL     1      12.340   2.984  27.617  0.00  0.00    +0.000 C 
ATOM     16  C   UNL     1      12.002   3.987  28.472  0.00  0.00    +0.000 C 
BRANCH  15  20
ATOM     17  C   UNL     1      11.372  -1.693  25.954  0.00  0.00    +0.000 A 
ATOM     18  C   UNL     1      10.903  -0.456  26.522  0.00  0.00    +0.000 A 
ATOM     19  C   UNL     1      11.830   0.615  26.778  0.00  0.00    +0.000 A 
ATOM     20  C   UNL     1      11.362   1.853  27.348  0.00  0.00    +0.000 A 
ATOM     21  C   UNL     1       9.965   2.018  27.661  0.00  0.00    +0.000 A 
ATOM     22  C   UNL     1      10.444  -2.765  25.697  0.00  0.00    +0.000 A 
BRANCH  17  24
ATOM     23  C   UNL     1      13.224  -1.551  24.341  0.00  0.00    +0.000 C 
ATOM     24  O   UNL     1      12.748  -1.856  25.644  0.00  0.00    +0.000 OA
ENDBRANCH  17  24
BRANCH  22  25
ATOM     25  O   UNL     1      10.906  -3.985  25.136  0.00  0.00    +0.000 OA
ATOM     26  C   UNL     1      10.503  -4.364  23.829  0.00  0.00    +0.000 C 
ENDBRANCH  22  25
ENDBRANCH  15  20
ENDBRANCH   1  16
TORSDOF 7
ENDMDL
MODEL 3
REMARK VINA RESULT:    -6.255      2.996      7.056
REMARK INTER + INTRA:          -9.847
REMARK INTER:                  -8.633
REMARK INTRA:                  -1.215
REMARK UNBOUND:                -1.215
REMARK  Name = 
REMARK  9 active torsions:
REMARK  status: ('A' for Active; 'I' for Inactive)
REMARK    1  A    between atoms: C_1  and  O_2
REMARK    2  A    between atoms: O_2  and  C_3
REMARK    3  A    between atoms: C_6  and  C_7
REMARK    4  A    between atoms: C_8  and  C_9
REMARK    5  A    between atoms: N_11  and  C_12
REMARK    6  A    between atoms: C_17  and  C_18
REMARK    7  A    between atoms: C_18  and  O_20
REMARK    8  A    between atoms: C_22  and  O_23
REMARK    9  A    between atoms: O_23  and  C_24
REMARK                            x       y       z     vdW  Elec       q    Type
REMARK                         _______ _______ _______ _____ _____    ______ ____
ROOT
ATOM      1  C   UNL     1      13.078   4.882  31.384  0.00  0.00    +0.000 C 
ATOM      2  O   UNL     1      12.960   4.310  32.513  0.00  0.00    +0.000 OA
ATOM      3  N   UNL     1      14.404   5.298  30.905  0.00  0.00    +0.000 N 
ATOM      4  H   UNL     1      15.229   5.128  31.479  0.00  0.00    +0.000 HD
ENDROOT
BRANCH   3   5
ATOM      5  C   UNL     1      14.539   5.959  29.600  0.00  0.00    +0.000 A 
ATOM      6  C   UNL     1      14.703   5.172  28.406  0.00  0.00    +0.000 A 
ATOM      7  C   UNL     1      14.735   3.734  28.491  0.00  0.00    +0.000 A 
ATOM      8  C   UNL     1      14.899   2.946  27.296  0.00  0.00    +0.000 A 
ATOM      9  C   UNL     1      14.930   1.508  27.382  0.00  0.00    +0.000 A 
ATOM     10  C   UNL     1      14.508   7.397  29.515  0.00  0.00    +0.000 A 
BRANCH  10  11
ATOM     11  C   UNL     1      14.335   8.229  30.775  0.00  0.00    +0.000 C 
ATOM     12  O   UNL     1      13.610   9.273  30.753  0.00  0.00    +0.000 OA
BRANCH  11  13
ATOM     13  O   UNL     1      14.981   7.839  31.979  0.00  0.00    +0.000 OA
ATOM     14  H   UNL     1      14.753   8.293  32.839  0.00  0.00    +0.000 HD
ENDBRANCH  11  13
ENDBRANCH  10  11
ENDBRANCH   3   5
BRANCH   1  16
ATOM     15  C   UNL     1      11.338   4.135  29.758  0.00  0.00    +0.000 C 
ATOM     16  C   UNL     1      11.847   5.134  30.528  0.00  0.00    +0.000 C 
BRANCH  15  20
ATOM     17  C   UNL     1       7.825   7.274  27.917  0.00  0.00    +0.000 A 
ATOM     18  C   UNL     1       8.382   5.949  28.004  0.00  0.00    +0.000 A 
ATOM     19  C   UNL     1       9.549   5.711  28.815  0.00  0.00    +0.000 A 
ATOM     20  C   UNL     1      10.107   4.386  28.902  0.00  0.00    +0.000 A 
ATOM     21  C   UNL     1       9.498   3.299  28.179  0.00  0.00    +0.000 A 
ATOM     22  C   UNL     1       6.658   7.512  27.107  0.00  0.00    +0.000 A 
BRANCH  17  24
ATOM     23  C   UNL     1       9.390   9.170  27.993  0.00  0.00    +0.000 C 
ATOM     24  O   UNL     1       8.425   8.345  28.630  0.00  0.00    +0.000 OA
ENDBRANCH  17  24
BRANCH  22  25
ATOM     25  O   UNL     1       6.108   8.819  27.020  0.00  0.00    +0.000 OA
ATOM     26  C   UNL     1       6.305   9.596  25.848  0.00  0.00    +0.000 C 
ENDBRANCH  22  25
ENDBRANCH  15  20
ENDBRANCH   1  16
TORSDOF 7
ENDMDL
MODEL 4
REMARK VINA RESULT:    -6.119      3.351      7.620
REMARK INTER + INTRA:          -9.660
REMARK INTER:                  -8.643
REMARK INTRA:                  -1.017
REMARK UNBOUND:                -1.215
REMARK  Name = 
REMARK  9 active torsions:
REMARK  status: ('A' for Active; 'I' for Inactive)
REMARK    1  A    between atoms: C_1  and  O_2
REMARK    2  A    between atoms: O_2  and  C_3
REMARK    3  A    between atoms: C_6  and  C_7
REMARK    4  A    between atoms: C_8  and  C_9
REMARK    5  A    between atoms: N_11  and  C_12
REMARK    6  A    between atoms: C_17  and  C_18
REMARK    7  A    between atoms: C_18  and  O_20
REMARK    8  A    between atoms: C_22  and  O_23
REMARK    9  A    between atoms: O_23  and  C_24
REMARK                            x       y       z     vdW  Elec       q    Type
REMARK                         _______ _______ _______ _____ _____    ______ ____
ROOT
ATOM      1  C   UNL     1      11.839   5.224  31.590  0.00  0.00    +0.000 C 
ATOM      2  O   UNL     1      11.233   4.333  32.266  0.00  0.00    +0.000 OA
ATOM      3  N   UNL     1      13.256   5.510  31.854  0.00  0.00    +0.000 N 
ATOM      4  H   UNL     1      13.754   4.993  32.579  0.00  0.00    +0.000 HD
ENDROOT
BRANCH   3   5
ATOM      5  C   UNL     1      13.955   6.541  31.074  0.00  0.00    +0.000 A 
ATOM      6  C   UNL     1      14.554   6.204  29.808  0.00  0.00    +0.000 A 
ATOM      7  C   UNL     1      14.467   4.856  29.307  0.00  0.00    +0.000 A 
ATOM      8  C   UNL     1      15.066   4.520  28.040  0.00  0.00    +0.000 A 
ATOM      9  C   UNL     1      14.980   3.173  27.539  0.00  0.00    +0.000 A 
ATOM     10  C   UNL     1      14.042   7.888  31.576  0.00  0.00    +0.000 A 
BRANCH  10  11
ATOM     11  C   UNL     1      13.410   8.244  32.911  0.00  0.00    +0.000 C 
ATOM     12  O   UNL     1      12.146   8.243  33.036  0.00  0.00    +0.000 OA
BRANCH  11  13
ATOM     13  O   UNL     1      14.233   8.575  34.021  0.00  0.00    +0.000 OA
ATOM     14  H   UNL     1      15.183   8.263  34.050  0.00  0.00    +0.000 HD
ENDBRANCH  11  13
ENDBRANCH  10  11
ENDBRANCH   3   5
BRANCH   1  16
ATOM     15  C   UNL     1      10.007   5.441  29.909  0.00  0.00    +0.000 C 
ATOM     16  C   UNL     1      11.096   5.993  30.510  0.00  0.00    +0.000 C 
BRANCH  15  20
ATOM     17  C   UNL     1       9.194   9.703  27.309  0.00  0.00    +0.000 A 
ATOM     18  C   UNL     1       8.876   8.320  27.557  0.00  0.00    +0.000 A 
ATOM     19  C   UNL     1       9.581   7.593  28.581  0.00  0.00    +0.000 A 
ATOM     20  C   UNL     1       9.264   6.210  28.829  0.00  0.00    +0.000 A 
ATOM     21  C   UNL     1       8.241   5.555  28.054  0.00  0.00    +0.000 A 
ATOM     22  C   UNL     1       8.489  10.431  26.285  0.00  0.00    +0.000 A 
BRANCH  17  24
ATOM     23  C   UNL     1      11.532  10.417  27.581  0.00  0.00    +0.000 C 
ATOM     24  O   UNL     1      10.201  10.348  28.073  0.00  0.00    +0.000 OA
ENDBRANCH  17  24
BRANCH  22  25
ATOM     25  O   UNL     1       8.802  11.794  26.040  0.00  0.00    +0.000 OA
ATOM     26  C   UNL     1       8.939  12.263  24.707  0.00  0.00    +0.000 C 
ENDBRANCH  22  25
ENDBRANCH  15  20
ENDBRANCH   1  16
TORSDOF 7
ENDMDL
MODEL 5
REMARK VINA RESULT:    -6.103      1.589      2.336
REMARK INTER + INTRA:          -9.637
REMARK INTER:                  -8.662
REMARK INTRA:                  -0.975
REMARK UNBOUND:                -1.215
REMARK  Name = 
REMARK  9 active torsions:
REMARK  status: ('A' for Active; 'I' for Inactive)
REMARK    1  A    between atoms: C_1  and  O_2
REMARK    2  A    between atoms: O_2  and  C_3
REMARK    3  A    between atoms: C_6  and  C_7
REMARK    4  A    between atoms: C_8  and  C_9
REMARK    5  A    between atoms: N_11  and  C_12
REMARK    6  A    between atoms: C_17  and  C_18
REMARK    7  A    between atoms: C_18  and  O_20
REMARK    8  A    between atoms: C_22  and  O_23
REMARK    9  A    between atoms: O_23  and  C_24
REMARK                            x       y       z     vdW  Elec       q    Type
REMARK                         _______ _______ _______ _____ _____    ______ ____
ROOT
ATOM      1  C   UNL     1      11.956   4.521  31.148  0.00  0.00    +0.000 C 
ATOM      2  O   UNL     1      11.717   3.720  32.106  0.00  0.00    +0.000 OA
ATOM      3  N   UNL     1      11.697   5.959  31.311  0.00  0.00    +0.000 N 
ATOM      4  H   UNL     1      11.326   6.314  32.192  0.00  0.00    +0.000 HD
ENDROOT
BRANCH   3   5
ATOM      5  C   UNL     1      11.974   6.885  30.203  0.00  0.00    +0.000 A 
ATOM      6  C   UNL     1      11.019   7.038  29.136  0.00  0.00    +0.000 A 
ATOM      7  C   UNL     1       9.792   6.284  29.155  0.00  0.00    +0.000 A 
ATOM      8  C   UNL     1       8.837   6.438  28.088  0.00  0.00    +0.000 A 
ATOM      9  C   UNL     1       7.610   5.684  28.107  0.00  0.00    +0.000 A 
ATOM     10  C   UNL     1      13.202   7.638  30.185  0.00  0.00    +0.000 A 
BRANCH  10  11
ATOM     11  C   UNL     1      14.210   7.476  31.311  0.00  0.00    +0.000 C 
ATOM     12  O   UNL     1      14.376   8.412  32.154  0.00  0.00    +0.000 OA
BRANCH  11  13
ATOM     13  O   UNL     1      14.966   6.278  31.420  0.00  0.00    +0.000 OA
ATOM     14  H   UNL     1      15.113   5.860  32.317  0.00  0.00    +0.000 HD
ENDBRANCH  11  13
ENDBRANCH  10  11
ENDBRANCH   3   5
BRANCH   1  16
ATOM     15  C   UNL     1      13.813   3.605  29.754  0.00  0.00    +0.000 C 
ATOM     16  C   UNL     1      12.511   3.992  29.836  0.00  0.00    +0.000 C 
BRANCH  15  20
ATOM     17  C   UNL     1      13.196   1.080  25.416  0.00  0.00    +0.000 A 
ATOM     18  C   UNL     1      14.045   1.826  26.307  0.00  0.00    +0.000 A 
ATOM     19  C   UNL     1      13.519   2.328  27.550  0.00  0.00    +0.000 A 
ATOM     20  C   UNL     1      14.368   3.075  28.442  0.00  0.00    +0.000 A 
ATOM     21  C   UNL     1      15.743   3.320  28.091  0.00  0.00    +0.000 A 
ATOM     22  C   UNL     1      13.722   0.577  24.172  0.00  0.00    +0.000 A 
BRANCH  17  24
ATOM     23  C   UNL     1      10.812   1.652  25.217  0.00  0.00    +0.000 C 
ATOM     24  O   UNL     1      11.840   0.838  25.762  0.00  0.00    +0.000 OA
ENDBRANCH  17  24
BRANCH  22  25
ATOM     25  O   UNL     1      12.885  -0.159  23.292  0.00  0.00    +0.000 OA
ATOM     26  C   UNL     1      12.815  -1.573  23.395  0.00  0.00    +0.000 C 
ENDBRANCH  22  25
ENDBRANCH  15  20
ENDBRANCH   1  16
TORSDOF 7
ENDMDL
MODEL 6
REMARK VINA RESULT:    -6.061      2.988      7.617
REMARK INTER + INTRA:          -9.580
REMARK INTER:                  -8.513
REMARK INTRA:                  -1.067
REMARK UNBOUND:                -1.215
REMARK  Name = 
REMARK  9 active torsions:
REMARK  status: ('A' for Active; 'I' for Inactive)
REMARK    1  A    between atoms: C_1  and  O_2
REMARK    2  A    between atoms: O_2  and  C_3
REMARK    3  A    between atoms: C_6  and  C_7
REMARK    4  A    between atoms: C_8  and  C_9
REMARK    5  A    between atoms: N_11  and  C_12
REMARK    6  A    between atoms: C_17  and  C_18
REMARK    7  A    between atoms: C_18  and  O_20
REMARK    8  A    between atoms: C_22  and  O_23
REMARK    9  A    between atoms: O_23  and  C_24
REMARK                            x       y       z     vdW  Elec       q    Type
REMARK                         _______ _______ _______ _____ _____    ______ ____
ROOT
ATOM      1  C   UNL     1      13.569  -0.510  25.031  0.00  0.00    +0.000 C 
ATOM      2  O   UNL     1      14.375  -1.493  25.027  0.00  0.00    +0.000 OA
ATOM      3  N   UNL     1      12.299  -0.597  24.296  0.00  0.00    +0.000 N 
ATOM      4  H   UNL     1      12.065  -1.447  23.782  0.00  0.00    +0.000 HD
ENDROOT
BRANCH   3   5
ATOM      5  C   UNL     1      11.368   0.540  24.301  0.00  0.00    +0.000 A 
ATOM      6  C   UNL     1      10.413   0.685  25.369  0.00  0.00    +0.000 A 
ATOM      7  C   UNL     1      10.370  -0.286  26.433  0.00  0.00    +0.000 A 
ATOM      8  C   UNL     1       9.415  -0.140  27.501  0.00  0.00    +0.000 A 
ATOM      9  C   UNL     1       9.372  -1.111  28.564  0.00  0.00    +0.000 A 
ATOM     10  C   UNL     1      11.411   1.510  23.237  0.00  0.00    +0.000 A 
BRANCH  10  11
ATOM     11  C   UNL     1      12.419   1.357  22.110  0.00  0.00    +0.000 C 
ATOM     12  O   UNL     1      13.659   1.504  22.343  0.00  0.00    +0.000 OA
BRANCH  11  13
ATOM     13  O   UNL     1      11.974   1.050  20.796  0.00  0.00    +0.000 OA
ATOM     14  H   UNL     1      12.348   0.258  20.314  0.00  0.00    +0.000 HD
ENDBRANCH  11  13
ENDBRANCH  10  11
ENDBRANCH   3   5
BRANCH   1  16
ATOM     15  C   UNL     1      14.737   0.688  26.883  0.00  0.00    +0.000 C 
ATOM     16  C   UNL     1      13.918   0.755  25.798  0.00  0.00    +0.000 C 
BRANCH  15  20
ATOM     17  C   UNL     1      13.471   5.253  28.654  0.00  0.00    +0.000 A 
ATOM     18  C   UNL     1      14.445   4.202  28.515  0.00  0.00    +0.000 A 
ATOM     19  C   UNL     1      14.113   3.004  27.789  0.00  0.00    +0.000 A 
ATOM     20  C   UNL     1      15.087   1.953  27.650  0.00  0.00    +0.000 A 
ATOM     21  C   UNL     1      16.394   2.100  28.237  0.00  0.00    +0.000 A 
ATOM     22  C   UNL     1      13.804   6.452  29.381  0.00  0.00    +0.000 A 
BRANCH  17  24
ATOM     23  C   UNL     1      11.113   4.579  28.845  0.00  0.00    +0.000 C 
ATOM     24  O   UNL     1      12.183   5.109  28.075  0.00  0.00    +0.000 OA
ENDBRANCH  17  24
BRANCH  22  25
ATOM     25  O   UNL     1      12.843   7.489  29.519  0.00  0.00    +0.000 OA
ATOM     26  C   UNL     1      12.148   7.655  30.745  0.00  0.00    +0.000 C 
ENDBRANCH  22  25
ENDBRANCH  15  20
ENDBRANCH   1  16
TORSDOF 7
ENDMDL
MODEL 7
REMARK VINA RESULT:    -6.044     16.188     18.064
REMARK INTER + INTRA:          -9.556
REMARK INTER:                  -8.546
REMARK INTRA:                  -1.010
REMARK UNBOUND:                -1.215
REMARK  Name = 
REMARK  9 active torsions:
REMARK  status: ('A' for Active; 'I' for Inactive)
REMARK    1  A    between atoms: C_1  and  O_2
REMARK    2  A    between atoms: O_2  and  C_3
REMARK    3  A    between atoms: C_6  and  C_7
REMARK    4  A    between atoms: C_8  and  C_9
REMARK    5  A    between atoms: N_11  and  C_12
REMARK    6  A    between atoms: C_17  and  C_18
REMARK    7  A    between atoms: C_18  and  O_20
REMARK    8  A    between atoms: C_22  and  O_23
REMARK    9  A    between atoms: O_23  and  C_24
REMARK                            x       y       z     vdW  Elec       q    Type
REMARK                         _______ _______ _______ _____ _____    ______ ____
ROOT
ATOM      1  C   UNL     1      22.443  -9.989  36.886  0.00  0.00    +0.000 C 
ATOM      2  O   UNL     1      23.056 -10.506  37.873  0.00  0.00    +0.000 OA
ATOM      3  N   UNL     1      20.974  -9.954  36.870  0.00  0.00    +0.000 N 
ATOM      4  H   UNL     1      20.446 -10.345  37.650  0.00  0.00    +0.000 HD
ENDROOT
BRANCH   3   5
ATOM      5  C   UNL     1      20.267  -9.356  35.728  0.00  0.00    +0.000 A 
ATOM      6  C   UNL     1      19.822 -10.187  34.640  0.00  0.00    +0.000 A 
ATOM      7  C   UNL     1      20.072 -11.606  34.670  0.00  0.00    +0.000 A 
ATOM      8  C   UNL     1      19.627 -12.437  33.581  0.00  0.00    +0.000 A 
ATOM      9  C   UNL     1      19.876 -13.856  33.611  0.00  0.00    +0.000 A 
ATOM     10  C   UNL     1      20.018  -7.938  35.699  0.00  0.00    +0.000 A 
BRANCH  10  11
ATOM     11  C   UNL     1      20.487  -7.060  36.847  0.00  0.00    +0.000 C 
ATOM     12  O   UNL     1      21.044  -5.944  36.608  0.00  0.00    +0.000 OA
BRANCH  11  13
ATOM     13  O   UNL     1      20.301  -7.487  38.190  0.00  0.00    +0.000 OA
ATOM     14  H   UNL     1      19.912  -8.389  38.378  0.00  0.00    +0.000 HD
ENDBRANCH  11  13
ENDBRANCH  10  11
ENDBRANCH   3   5
BRANCH   1  16
ATOM     15  C   UNL     1      24.366 -10.022  35.295  0.00  0.00    +0.000 C 
ATOM     16  C   UNL     1      23.231  -9.406  35.724  0.00  0.00    +0.000 C 
BRANCH  15  20
ATOM     17  C   UNL     1      24.928  -9.189  30.338  0.00  0.00    +0.000 A 
ATOM     18  C   UNL     1      25.415  -9.039  31.685  0.00  0.00    +0.000 A 
ATOM     19  C   UNL     1      24.668  -9.591  32.786  0.00  0.00    +0.000 A 
ATOM     20  C   UNL     1      25.154  -9.441  34.133  0.00  0.00    +0.000 A 
ATOM     21  C   UNL     1      26.389  -8.740  34.379  0.00  0.00    +0.000 A 
ATOM     22  C   UNL     1      25.676  -8.638  29.237  0.00  0.00    +0.000 A 
BRANCH  17  24
ATOM     23  C   UNL     1      23.736 -11.252  29.728  0.00  0.00    +0.000 C 
ATOM     24  O   UNL     1      23.712  -9.880  30.095  0.00  0.00    +0.000 OA
ENDBRANCH  17  24
BRANCH  22  25
ATOM     25  O   UNL     1      25.196  -8.785  27.908  0.00  0.00    +0.000 OA
ATOM     26  C   UNL     1      26.086  -9.165  26.870  0.00  0.00    +0.000 C 
ENDBRANCH  22  25
ENDBRANCH  15  20
ENDBRANCH   1  16
TORSDOF 7
ENDMDL
MODEL 8
REMARK VINA RESULT:    -5.998      3.053      7.563
REMARK INTER + INTRA:          -9.493
REMARK INTER:                  -8.281
REMARK INTRA:                  -1.212
REMARK UNBOUND:                -1.215
REMARK  Name = 
REMARK  9 active torsions:
REMARK  status: ('A' for Active; 'I' for Inactive)
REMARK    1  A    between atoms: C_1  and  O_2
REMARK    2  A    between atoms: O_2  and  C_3
REMARK    3  A    between atoms: C_6  and  C_7
REMARK    4  A    between atoms: C_8  and  C_9
REMARK    5  A    between atoms: N_11  and  C_12
REMARK    6  A    between atoms: C_17  and  C_18
REMARK    7  A    between atoms: C_18  and  O_20
REMARK    8  A    between atoms: C_22  and  O_23
REMARK    9  A    between atoms: O_23  and  C_24
REMARK                            x       y       z     vdW  Elec       q    Type
REMARK                         _______ _______ _______ _____ _____    ______ ____
ROOT
ATOM      1  C   UNL     1      13.301  -0.808  24.512  0.00  0.00    +0.000 C 
ATOM      2  O   UNL     1      14.019  -1.846  24.354  0.00  0.00    +0.000 OA
ATOM      3  N   UNL     1      11.928  -0.778  23.991  0.00  0.00    +0.000 N 
ATOM      4  H   UNL     1      11.550  -1.589  23.502  0.00  0.00    +0.000 HD
ENDROOT
BRANCH   3   5
ATOM      5  C   UNL     1      11.099   0.423  24.173  0.00  0.00    +0.000 A 
ATOM      6  C   UNL     1      11.058   1.433  23.149  0.00  0.00    +0.000 A 
ATOM      7  C   UNL     1      11.830   1.268  21.944  0.00  0.00    +0.000 A 
ATOM      8  C   UNL     1      11.788   2.279  20.919  0.00  0.00    +0.000 A 
ATOM      9  C   UNL     1      12.559   2.114  19.714  0.00  0.00    +0.000 A 
ATOM     10  C   UNL     1      10.328   0.588  25.379  0.00  0.00    +0.000 A 
BRANCH  10  11
ATOM     11  C   UNL     1      10.371  -0.479  26.461  0.00  0.00    +0.000 C 
ATOM     12  O   UNL     1      10.584  -0.150  27.670  0.00  0.00    +0.000 OA
BRANCH  11  13
ATOM     13  O   UNL     1      10.173  -1.844  26.120  0.00  0.00    +0.000 OA
ATOM     14  H   UNL     1      10.353  -2.158  25.189  0.00  0.00    +0.000 HD
ENDBRANCH  11  13
ENDBRANCH  10  11
ENDBRANCH   3   5
BRANCH   1  16
ATOM     15  C   UNL     1      14.013   0.371  26.594  0.00  0.00    +0.000 C 
ATOM     16  C   UNL     1      13.865   0.401  25.241  0.00  0.00    +0.000 C 
BRANCH  15  20
ATOM     17  C   UNL     1      13.438   5.015  28.513  0.00  0.00    +0.000 A 
ATOM     18  C   UNL     1      14.274   3.870  28.264  0.00  0.00    +0.000 A 
ATOM     19  C   UNL     1      13.740   2.726  27.573  0.00  0.00    +0.000 A 
ATOM     20  C   UNL     1      14.576   1.580  27.324  0.00  0.00    +0.000 A 
ATOM     21  C   UNL     1      15.947   1.579  27.766  0.00  0.00    +0.000 A 
ATOM     22  C   UNL     1      13.972   6.161  29.205  0.00  0.00    +0.000 A 
BRANCH  17  24
ATOM     23  C   UNL     1      11.049   4.657  28.979  0.00  0.00    +0.000 C 
ATOM     24  O   UNL     1      12.087   5.017  28.077  0.00  0.00    +0.000 OA
ENDBRANCH  17  24
BRANCH  22  25
ATOM     25  O   UNL     1      13.148   7.291  29.451  0.00  0.00    +0.000 OA
ATOM     26  C   UNL     1      12.748   7.602  30.777  0.00  0.00    +0.000 C 
ENDBRANCH  22  25
ENDBRANCH  15  20
ENDBRANCH   1  16
TORSDOF 7
ENDMDL
MODEL 9
REMARK VINA RESULT:    -5.981      3.233      7.914
REMARK INTER + INTRA:          -9.469
REMARK INTER:                  -8.493
REMARK INTRA:                  -0.976
REMARK UNBOUND:                -1.215
REMARK  Name = 
REMARK  9 active torsions:
REMARK  status: ('A' for Active; 'I' for Inactive)
REMARK    1  A    between atoms: C_1  and  O_2
REMARK    2  A    between atoms: O_2  and  C_3
REMARK    3  A    between atoms: C_6  and  C_7
REMARK    4  A    between atoms: C_8  and  C_9
REMARK    5  A    between atoms: N_11  and  C_12
REMARK    6  A    between atoms: C_17  and  C_18
REMARK    7  A    between atoms: C_18  and  O_20
REMARK    8  A    between atoms: C_22  and  O_23
REMARK    9  A    between atoms: O_23  and  C_24
REMARK                            x       y       z     vdW  Elec       q    Type
REMARK                         _______ _______ _______ _____ _____    ______ ____
ROOT
ATOM      1  C   UNL     1      11.031  -0.101  24.729  0.00  0.00    +0.000 C 
ATOM      2  O   UNL     1      10.086  -0.936  24.896  0.00  0.00    +0.000 OA
ATOM      3  N   UNL     1      12.166  -0.439  23.858  0.00  0.00    +0.000 N 
ATOM      4  H   UNL     1      12.196  -1.343  23.387  0.00  0.00    +0.000 HD
ENDROOT
BRANCH   3   5
ATOM      5  C   UNL     1      13.257   0.527  23.667  0.00  0.00    +0.000 A 
ATOM      6  C   UNL     1      13.292   1.351  22.486  0.00  0.00    +0.000 A 
ATOM      7  C   UNL     1      12.256   1.229  21.493  0.00  0.00    +0.000 A 
ATOM      8  C   UNL     1      12.291   2.054  20.312  0.00  0.00    +0.000 A 
ATOM      9  C   UNL     1      11.255   1.932  19.319  0.00  0.00    +0.000 A 
ATOM     10  C   UNL     1      14.293   0.649  24.661  0.00  0.00    +0.000 A 
BRANCH  10  11
ATOM     11  C   UNL     1      14.256  -0.221  25.906  0.00  0.00    +0.000 C 
ATOM     12  O   UNL     1      14.483   0.292  27.046  0.00  0.00    +0.000 OA
BRANCH  11  13
ATOM     13  O   UNL     1      13.967  -1.608  25.797  0.00  0.00    +0.000 OA
ATOM     14  H   UNL     1      13.578  -2.101  26.575  0.00  0.00    +0.000 HD
ENDBRANCH  11  13
ENDBRANCH  10  11
ENDBRANCH   3   5
BRANCH   1  16
ATOM     15  C   UNL     1      11.051   1.309  26.788  0.00  0.00    +0.000 C 
ATOM     16  C   UNL     1      10.985   1.247  25.430  0.00  0.00    +0.000 C 
BRANCH  15  20
ATOM     17  C   UNL     1      13.347   5.015  29.352  0.00  0.00    +0.000 A 
ATOM     18  C   UNL     1      12.154   4.474  28.754  0.00  0.00    +0.000 A 
ATOM     19  C   UNL     1      12.198   3.198  28.089  0.00  0.00    +0.000 A 
ATOM     20  C   UNL     1      11.005   2.657  27.490  0.00  0.00    +0.000 A 
ATOM     21  C   UNL     1       9.768   3.392  27.558  0.00  0.00    +0.000 A 
ATOM     22  C   UNL     1      13.304   6.292  30.019  0.00  0.00    +0.000 A 
BRANCH  17  24
ATOM     23  C   UNL     1      15.420   4.436  28.160  0.00  0.00    +0.000 C 
ATOM     24  O   UNL     1      14.566   4.290  29.287  0.00  0.00    +0.000 OA
ENDBRANCH  17  24
BRANCH  22  25
ATOM     25  O   UNL     1      14.480   6.826  30.608  0.00  0.00    +0.000 OA
ATOM     26  C   UNL     1      14.788   8.203  30.458  0.00  0.00    +0.000 C 
ENDBRANCH  22  25
ENDBRANCH  15  20
ENDBRANCH   1  16
TORSDOF 7
ENDMDL
MODEL 10
REMARK VINA RESULT:    -5.970      3.090      7.966
REMARK INTER + INTRA:          -9.453
REMARK INTER:                  -8.379
REMARK INTRA:                  -1.074
REMARK UNBOUND:                -1.215
REMARK  Name = 
REMARK  9 active torsions:
REMARK  status: ('A' for Active; 'I' for Inactive)
REMARK    1  A    between atoms: C_1  and  O_2
REMARK    2  A    between atoms: O_2  and  C_3
REMARK    3  A    between atoms: C_6  and  C_7
REMARK    4  A    between atoms: C_8  and  C_9
REMARK    5  A    between atoms: N_11  and  C_12
REMARK    6  A    between atoms: C_17  and  C_18
REMARK    7  A    between atoms: C_18  and  O_20
REMARK    8  A    between atoms: C_22  and  O_23
REMARK    9  A    between atoms: O_23  and  C_24
REMARK                            x       y       z     vdW  Elec       q    Type
REMARK                         _______ _______ _______ _____ _____    ______ ____
ROOT
ATOM      1  C   UNL     1      10.397   0.708  25.193  0.00  0.00    +0.000 C 
ATOM      2  O   UNL     1       9.163   0.807  25.484  0.00  0.00    +0.000 OA
ATOM      3  N   UNL     1      10.855  -0.348  24.278  0.00  0.00    +0.000 N 
ATOM      4  H   UNL     1      10.182  -1.001  23.877  0.00  0.00    +0.000 HD
ENDROOT
BRANCH   3   5
ATOM      5  C   UNL     1      12.281  -0.462  23.943  0.00  0.00    +0.000 A 
ATOM      6  C   UNL     1      12.819   0.266  22.823  0.00  0.00    +0.000 A 
ATOM      7  C   UNL     1      11.958   1.106  22.031  0.00  0.00    +0.000 A 
ATOM      8  C   UNL     1      12.497   1.835  20.911  0.00  0.00    +0.000 A 
ATOM      9  C   UNL     1      11.636   2.675  20.119  0.00  0.00    +0.000 A 
ATOM     10  C   UNL     1      13.141  -1.303  24.736  0.00  0.00    +0.000 A 
BRANCH  10  11
ATOM     11  C   UNL     1      12.574  -2.071  25.918  0.00  0.00    +0.000 C 
ATOM     12  O   UNL     1      12.978  -1.815  27.095  0.00  0.00    +0.000 OA
BRANCH  11  13
ATOM     13  O   UNL     1      11.590  -3.074  25.707  0.00  0.00    +0.000 OA
ATOM     14  H   UNL     1      10.621  -2.855  25.816  0.00  0.00    +0.000 HD
ENDBRANCH  11  13
ENDBRANCH  10  11
ENDBRANCH   3   5
BRANCH   1  16
ATOM     15  C   UNL     1      11.809   1.531  27.079  0.00  0.00    +0.000 C 
ATOM     16  C   UNL     1      11.399   1.683  25.791  0.00  0.00    +0.000 C 
BRANCH  15  20
ATOM     17  C   UNL     1      12.939   5.236  30.331  0.00  0.00    +0.000 A 
ATOM     18  C   UNL     1      13.350   4.332  29.289  0.00  0.00    +0.000 A 
ATOM     19  C   UNL     1      12.400   3.409  28.721  0.00  0.00    +0.000 A 
ATOM     20  C   UNL     1      12.810   2.504  27.678  0.00  0.00    +0.000 A 
ATOM     21  C   UNL     1      14.170   2.523  27.203  0.00  0.00    +0.000 A 
ATOM     22  C   UNL     1      13.889   6.159  30.899  0.00  0.00    +0.000 A 
BRANCH  17  24
ATOM     23  C   UNL     1      11.254   4.437  31.935  0.00  0.00    +0.000 C 
ATOM     24  O   UNL     1      11.599   5.218  30.800  0.00  0.00    +0.000 OA
ENDBRANCH  17  24
BRANCH  22  25
ATOM     25  O   UNL     1      13.485   7.051  31.928  0.00  0.00    +0.000 OA
ATOM     26  C   UNL     1      13.046   8.361  31.601  0.00  0.00    +0.000 C 
ENDBRANCH  22  25
ENDBRANCH  15  20
ENDBRANCH   1  16
TORSDOF 7
ENDMDL
