MODEL 1
REMARK VINA RESULT:    -8.080      0.000      0.000
REMARK INTER + INTRA:         -11.200
REMARK INTER:                 -10.914
REMARK INTRA:                  -0.286
REMARK UNBOUND:                -0.286
REMARK  Name = 
REMARK  8 active torsions:
REMARK  status: ('A' for Active; 'I' for Inactive)
REMARK    1  A    between atoms: C_1  and  O_2
REMARK    2  A    between atoms: O_2  and  C_3
REMARK    3  A    between atoms: C_8  and  C_9
REMARK    4  A    between atoms: C_12  and  C_13
REMARK    5  A    between atoms: N_15  and  C_16
REMARK    6  A    between atoms: C_16  and  C_17
REMARK    7  A    between atoms: C_17  and  C_18
REMARK    8  A    between atoms: C_19  and  C_20
REMARK                            x       y       z     vdW  Elec       q    Type
REMARK                         _______ _______ _______ _____ _____    ______ ____
ROOT
ATOM      1  C   UNL     1      16.080   3.697  28.013  0.00  0.00    +0.000 C 
ATOM      2  O   UNL     1      17.345   3.762  27.914  0.00  0.00    +0.000 OA
ATOM      3  N   UNL     1      15.274   4.926  27.957  0.00  0.00    +0.000 N 
ATOM      4  H   UNL     1      15.730   5.830  27.839  0.00  0.00    +0.000 HD
ENDROOT
BRANCH   1   8
ATOM      5  C   UNL     1      13.887  -0.414  26.045  0.00  0.00    +0.000 A 
ATOM      6  C   UNL     1      14.320   0.328  27.200  0.00  0.00    +0.000 A 
ATOM      7  C   UNL     1      14.966   1.606  27.033  0.00  0.00    +0.000 A 
ATOM      8  C   UNL     1      15.399   2.350  28.188  0.00  0.00    +0.000 A 
ATOM      9  C   UNL     1      15.188   1.816  29.509  0.00  0.00    +0.000 A 
ATOM     10  C   UNL     1      13.242  -1.692  26.212  0.00  0.00    +0.000 A 
BRANCH   5  16
ATOM     11  C   UNL     1      12.987   0.593  23.866  0.00  0.00    +0.000 A 
ATOM     12  C   UNL     1      13.198   1.126  22.544  0.00  0.00    +0.000 A 
ATOM     13  C   UNL     1      12.076   1.570  21.759  0.00  0.00    +0.000 A 
ATOM     14  C   UNL     1      12.288   2.103  20.438  0.00  0.00    +0.000 A 
ATOM     15  C   UNL     1      11.165   2.548  19.653  0.00  0.00    +0.000 A 
ATOM     16  C   UNL     1      14.109   0.148  24.650  0.00  0.00    +0.000 A 
BRANCH  11  18
ATOM     17  C   UNL     1      11.166   1.549  25.216  0.00  0.00    +0.000 C 
ATOM     18  O   UNL     1      11.672   0.506  24.394  0.00  0.00    +0.000 OA
ENDBRANCH  11  18
ENDBRANCH   5  16
ENDBRANCH   1   8
BRANCH   3  19
ATOM     19  C   UNL     1      13.810   4.850  28.070  0.00  0.00    +0.000 C 
BRANCH  19  20
ATOM     20  C   UNL     1      13.359   5.597  29.315  0.00  0.00    +0.000 C 
BRANCH  20  21
ATOM     21  C   UNL     1      12.014   6.255  29.053  0.00  0.00    +0.000 A 
ATOM     22  C   UNL     1      10.854   5.443  28.794  0.00  0.00    +0.000 A 
ATOM     23  C   UNL     1      10.973   3.928  28.784  0.00  0.00    +0.000 C 
ATOM     24  N   UNL     1       9.621   6.046  28.553  0.00  0.00    +0.000 N 
ATOM     25  C   UNL     1       9.511   7.435  28.562  0.00  0.00    +0.000 A 
ATOM     26  C   UNL     1      10.673   8.247  28.821  0.00  0.00    +0.000 A 
ATOM     27  C   UNL     1      11.947   7.623  29.070  0.00  0.00    +0.000 A 
ATOM     28  C   UNL     1      13.108   8.435  29.328  0.00  0.00    +0.000 A 
ATOM     29  C   UNL     1      14.382   7.812  29.577  0.00  0.00    +0.000 A 
ATOM     30  C   UNL     1       8.238   8.058  28.314  0.00  0.00    +0.000 A 
ATOM     31  H   UNL     1       8.799   5.471  28.370  0.00  0.00    +0.000 HD
ENDBRANCH  20  21
ENDBRANCH  19  20
ENDBRANCH   3  19
TORSDOF 6
ENDMDL
MODEL 2
REMARK VINA RESULT:    -7.932      1.951      2.489
REMARK INTER + INTRA:         -11.001
REMARK INTER:                 -11.226
REMARK INTRA:                   0.225
REMARK UNBOUND:                -0.286
REMARK  Name = 
REMARK  8 active torsions:
REMARK  status: ('A' for Active; 'I' for Inactive)
REMARK    1  A    between atoms: C_1  and  O_2
REMARK    2  A    between atoms: O_2  and  C_3
REMARK    3  A    between atoms: C_8  and  C_9
REMARK    4  A    between atoms: C_12  and  C_13
REMARK    5  A    between atoms: N_15  and  C_16
REMARK    6  A    between atoms: C_16  and  C_17
REMARK    7  A    between atoms: C_17  and  C_18
REMARK    8  A    between atoms: C_19  and  C_20
REMARK                            x       y       z     vdW  Elec       q    Type
REMARK                         _______ _______ _______ _____ _____    ______ ____
ROOT
ATOM      1  C   UNL     1      15.100   4.519  28.022  0.00  0.00    +0.000 C 
ATOM      2  O   UNL     1      16.240   4.936  27.647  0.00  0.00    +0.000 OA
ATOM      3  N   UNL     1      14.039   5.481  28.356  0.00  0.00    +0.000 N 
ATOM      4  H   UNL     1      14.219   6.483  28.288  0.00  0.00    +0.000 HD
ENDROOT
BRANCH   1   8
ATOM      5  C   UNL     1      14.205   0.049  25.830  0.00  0.00    +0.000 A 
ATOM      6  C   UNL     1      14.391   0.830  27.025  0.00  0.00    +0.000 A 
ATOM      7  C   UNL     1      14.646   2.245  26.928  0.00  0.00    +0.000 A 
ATOM      8  C   UNL     1      14.832   3.027  28.124  0.00  0.00    +0.000 A 
ATOM      9  C   UNL     1      14.763   2.394  29.416  0.00  0.00    +0.000 A 
ATOM     10  C   UNL     1      13.951  -1.365  25.927  0.00  0.00    +0.000 A 
BRANCH   5  16
ATOM     11  C   UNL     1      13.108   0.768  23.626  0.00  0.00    +0.000 A 
ATOM     12  C   UNL     1      13.178   1.400  22.334  0.00  0.00    +0.000 A 
ATOM     13  C   UNL     1      12.009   1.451  21.494  0.00  0.00    +0.000 A 
ATOM     14  C   UNL     1      12.078   2.084  20.202  0.00  0.00    +0.000 A 
ATOM     15  C   UNL     1      10.909   2.135  19.362  0.00  0.00    +0.000 A 
ATOM     16  C   UNL     1      14.277   0.717  24.466  0.00  0.00    +0.000 A 
BRANCH  11  18
ATOM     17  C   UNL     1      10.999   0.956  24.876  0.00  0.00    +0.000 C 
ATOM     18  O   UNL     1      11.888   0.195  24.072  0.00  0.00    +0.000 OA
ENDBRANCH  11  18
ENDBRANCH   5  16
ENDBRANCH   1   8
BRANCH   3  19
ATOM     19  C   UNL     1      12.720   4.999  28.789  0.00  0.00    +0.000 C 
BRANCH  19  20
ATOM     20  C   UNL     1      11.824   6.187  29.102  0.00  0.00    +0.000 C 
BRANCH  20  21
ATOM     21  C   UNL     1      12.112   6.682  30.509  0.00  0.00    +0.000 A 
ATOM     22  C   UNL     1      12.231   5.742  31.593  0.00  0.00    +0.000 A 
ATOM     23  C   UNL     1      12.067   4.254  31.331  0.00  0.00    +0.000 C 
ATOM     24  N   UNL     1      12.495   6.197  32.883  0.00  0.00    +0.000 N 
ATOM     25  C   UNL     1      12.644   7.560  33.125  0.00  0.00    +0.000 A 
ATOM     26  C   UNL     1      12.525   8.501  32.040  0.00  0.00    +0.000 A 
ATOM     27  C   UNL     1      12.252   8.031  30.706  0.00  0.00    +0.000 A 
ATOM     28  C   UNL     1      12.134   8.971  29.622  0.00  0.00    +0.000 A 
ATOM     29  C   UNL     1      11.861   8.501  28.288  0.00  0.00    +0.000 A 
ATOM     30  C   UNL     1      12.918   8.030  34.458  0.00  0.00    +0.000 A 
ATOM     31  H   UNL     1      12.579   5.531  33.652  0.00  0.00    +0.000 HD
ENDBRANCH  20  21
ENDBRANCH  19  20
ENDBRANCH   3  19
TORSDOF 6
ENDMDL
MODEL 3
REMARK VINA RESULT:    -7.818      3.588      8.159
REMARK INTER + INTRA:         -10.847
REMARK INTER:                 -10.598
REMARK INTRA:                  -0.248
REMARK UNBOUND:                -0.286
REMARK  Name = 
REMARK  8 active torsions:
REMARK  status: ('A' for Active; 'I' for Inactive)
REMARK    1  A    between atoms: C_1  and  O_2
REMARK    2  A    between atoms: O_2  and  C_3
REMARK    3  A    between atoms: C_8  and  C_9
REMARK    4  A    between atoms: C_12  and  C_13
REMARK    5  A    between atoms: N_15  and  C_16
REMARK    6  A    between atoms: C_16  and  C_17
REMARK    7  A    between atoms: C_17  and  C_18
REMARK    8  A    between atoms: C_19  and  C_20
REMARK                            x       y       z     vdW  Elec       q    Type
REMARK                         _______ _______ _______ _____ _____    ______ ____
ROOT
ATOM      1  C   UNL     1      12.701   6.905  32.442  0.00  0.00    +0.000 C 
ATOM      2  O   UNL     1      12.182   7.237  33.554  0.00  0.00    +0.000 OA
ATOM      3  N   UNL     1      12.786   5.486  32.065  0.00  0.00    +0.000 N 
ATOM      4  H   UNL     1      12.430   4.768  32.696  0.00  0.00    +0.000 HD
ENDROOT
BRANCH   1   8
ATOM      5  C   UNL     1      11.903  10.691  29.185  0.00  0.00    +0.000 A 
ATOM      6  C   UNL     1      12.819   9.839  29.897  0.00  0.00    +0.000 A 
ATOM      7  C   UNL     1      12.315   8.826  30.789  0.00  0.00    +0.000 A 
ATOM      8  C   UNL     1      13.232   7.974  31.502  0.00  0.00    +0.000 A 
ATOM      9  C   UNL     1      14.652   8.135  31.323  0.00  0.00    +0.000 A 
ATOM     10  C   UNL     1      12.406  11.704  28.293  0.00  0.00    +0.000 A 
BRANCH   5  16
ATOM     11  C   UNL     1       9.656   9.680  28.474  0.00  0.00    +0.000 A 
ATOM     12  C   UNL     1       8.235   9.520  28.653  0.00  0.00    +0.000 A 
ATOM     13  C   UNL     1       7.487   8.679  27.755  0.00  0.00    +0.000 A 
ATOM     14  C   UNL     1       6.067   8.519  27.934  0.00  0.00    +0.000 A 
ATOM     15  C   UNL     1       5.319   7.677  27.036  0.00  0.00    +0.000 A 
ATOM     16  C   UNL     1      10.403  10.521  29.373  0.00  0.00    +0.000 A 
BRANCH  11  18
ATOM     17  C   UNL     1      10.412   9.619  26.135  0.00  0.00    +0.000 C 
ATOM     18  O   UNL     1      10.318   9.008  27.413  0.00  0.00    +0.000 OA
ENDBRANCH  11  18
ENDBRANCH   5  16
ENDBRANCH   1   8
BRANCH   3  19
ATOM     19  C   UNL     1      13.385   5.102  30.778  0.00  0.00    +0.000 C 
BRANCH  19  20
ATOM     20  C   UNL     1      12.355   5.265  29.672  0.00  0.00    +0.000 C 
BRANCH  20  21
ATOM     21  C   UNL     1      12.423   4.069  28.736  0.00  0.00    +0.000 A 
ATOM     22  C   UNL     1      13.672   3.710  28.116  0.00  0.00    +0.000 A 
ATOM     23  C   UNL     1      14.923   4.526  28.397  0.00  0.00    +0.000 C 
ATOM     24  N   UNL     1      13.734   2.614  27.259  0.00  0.00    +0.000 N 
ATOM     25  C   UNL     1      12.588   1.865  27.001  0.00  0.00    +0.000 A 
ATOM     26  C   UNL     1      11.338   2.225  27.621  0.00  0.00    +0.000 A 
ATOM     27  C   UNL     1      11.274   3.358  28.508  0.00  0.00    +0.000 A 
ATOM     28  C   UNL     1      10.025   3.718  29.128  0.00  0.00    +0.000 A 
ATOM     29  C   UNL     1       9.961   4.851  30.014  0.00  0.00    +0.000 A 
ATOM     30  C   UNL     1      12.652   0.732  26.115  0.00  0.00    +0.000 A 
ATOM     31  H   UNL     1      14.619   2.359  26.819  0.00  0.00    +0.000 HD
ENDBRANCH  20  21
ENDBRANCH  19  20
ENDBRANCH   3  19
TORSDOF 6
ENDMDL
MODEL 4
REMARK VINA RESULT:    -7.726      2.000      2.810
REMARK INTER + INTRA:         -10.723
REMARK INTER:                 -10.444
REMARK INTRA:                  -0.279
REMARK UNBOUND:                -0.286
REMARK  Name = 
REMARK  8 active torsions:
REMARK  status: ('A' for Active; 'I' for Inactive)
REMARK    1  A    between atoms: C_1  and  O_2
REMARK    2  A    between atoms: O_2  and  C_3
REMARK    3  A    between atoms: C_8  and  C_9
REMARK    4  A    between atoms: C_12  and  C_13
REMARK    5  A    between atoms: N_15  and  C_16
REMARK    6  A    between atoms: C_16  and  C_17
REMARK    7  A    between atoms: C_17  and  C_18
REMARK    8  A    between atoms: C_19  and  C_20
REMARK                            x       y       z     vdW  Elec       q    Type
REMARK                         _______ _______ _______ _____ _____    ______ ____
ROOT
ATOM      1  C   UNL     1      14.996   4.142  27.838  0.00  0.00    +0.000 C 
ATOM      2  O   UNL     1      16.015   4.882  27.664  0.00  0.00    +0.000 OA
ATOM      3  N   UNL     1      13.704   4.743  28.199  0.00  0.00    +0.000 N 
ATOM      4  H   UNL     1      13.625   5.753  28.310  0.00  0.00    +0.000 HD
ENDROOT
BRANCH   1   8
ATOM      5  C   UNL     1      14.077  -0.080  25.208  0.00  0.00    +0.000 A 
ATOM      6  C   UNL     1      14.652   0.564  26.361  0.00  0.00    +0.000 A 
ATOM      7  C   UNL     1      14.540   1.992  26.518  0.00  0.00    +0.000 A 
ATOM      8  C   UNL     1      15.114   2.636  27.672  0.00  0.00    +0.000 A 
ATOM      9  C   UNL     1      15.800   1.853  28.667  0.00  0.00    +0.000 A 
ATOM     10  C   UNL     1      14.188  -1.507  25.051  0.00  0.00    +0.000 A 
BRANCH   5  16
ATOM     11  C   UNL     1      11.965   1.086  24.338  0.00  0.00    +0.000 A 
ATOM     12  C   UNL     1      11.280   1.868  23.341  0.00  0.00    +0.000 A 
ATOM     13  C   UNL     1       9.893   2.208  23.522  0.00  0.00    +0.000 A 
ATOM     14  C   UNL     1       9.208   2.991  22.525  0.00  0.00    +0.000 A 
ATOM     15  C   UNL     1       7.820   3.331  22.706  0.00  0.00    +0.000 A 
ATOM     16  C   UNL     1      13.353   0.746  24.157  0.00  0.00    +0.000 A 
BRANCH  11  18
ATOM     17  C   UNL     1      10.621  -0.612  25.503  0.00  0.00    +0.000 C 
ATOM     18  O   UNL     1      11.273   0.650  25.498  0.00  0.00    +0.000 OA
ENDBRANCH  11  18
ENDBRANCH   5  16
ENDBRANCH   1   8
BRANCH   3  19
ATOM     19  C   UNL     1      12.525   3.886  28.398  0.00  0.00    +0.000 C 
BRANCH  19  20
ATOM     20  C   UNL     1      12.085   3.961  29.852  0.00  0.00    +0.000 C 
BRANCH  20  21
ATOM     21  C   UNL     1      12.294   5.374  30.372  0.00  0.00    +0.000 A 
ATOM     22  C   UNL     1      11.478   6.452  29.876  0.00  0.00    +0.000 A 
ATOM     23  C   UNL     1      10.408   6.178  28.833  0.00  0.00    +0.000 C 
ATOM     24  N   UNL     1      11.671   7.747  30.354  0.00  0.00    +0.000 N 
ATOM     25  C   UNL     1      12.652   7.999  31.309  0.00  0.00    +0.000 A 
ATOM     26  C   UNL     1      13.468   6.920  31.805  0.00  0.00    +0.000 A 
ATOM     27  C   UNL     1      13.270   5.581  31.312  0.00  0.00    +0.000 A 
ATOM     28  C   UNL     1      14.085   4.503  31.808  0.00  0.00    +0.000 A 
ATOM     29  C   UNL     1      13.887   3.164  31.315  0.00  0.00    +0.000 A 
ATOM     30  C   UNL     1      12.850   9.337  31.803  0.00  0.00    +0.000 A 
ATOM     31  H   UNL     1      11.093   8.511  30.003  0.00  0.00    +0.000 HD
ENDBRANCH  20  21
ENDBRANCH  19  20
ENDBRANCH   3  19
TORSDOF 6
ENDMDL
MODEL 5
REMARK VINA RESULT:    -7.710      2.425      4.225
REMARK INTER + INTRA:         -10.701
REMARK INTER:                  -9.919
REMARK INTRA:                  -0.782
REMARK UNBOUND:                -0.286
REMARK  Name = 
REMARK  8 active torsions:
REMARK  status: ('A' for Active; 'I' for Inactive)
REMARK    1  A    between atoms: C_1  and  O_2
REMARK    2  A    between atoms: O_2  and  C_3
REMARK    3  A    between atoms: C_8  and  C_9
REMARK    4  A    between atoms: C_12  and  C_13
REMARK    5  A    between atoms: N_15  and  C_16
REMARK    6  A    between atoms: C_16  and  C_17
REMARK    7  A    between atoms: C_17  and  C_18
REMARK    8  A    between atoms: C_19  and  C_20
REMARK                            x       y       z     vdW  Elec       q    Type
REMARK                         _______ _______ _______ _____ _____    ______ ____
ROOT
ATOM      1  C   UNL     1       9.068   1.668  27.175  0.00  0.00    +0.000 C 
ATOM      2  O   UNL     1       7.959   1.587  26.561  0.00  0.00    +0.000 OA
ATOM      3  N   UNL     1       9.409   2.889  27.919  0.00  0.00    +0.000 N 
ATOM      4  H   UNL     1       8.756   3.672  27.941  0.00  0.00    +0.000 HD
ENDROOT
BRANCH   1   8
ATOM      5  C   UNL     1      13.091  -0.651  25.169  0.00  0.00    +0.000 A 
ATOM      6  C   UNL     1      12.028  -0.628  26.140  0.00  0.00    +0.000 A 
ATOM      7  C   UNL     1      11.105   0.479  26.171  0.00  0.00    +0.000 A 
ATOM      8  C   UNL     1      10.042   0.502  27.143  0.00  0.00    +0.000 A 
ATOM      9  C   UNL     1       9.901  -0.581  28.083  0.00  0.00    +0.000 A 
ATOM     10  C   UNL     1      14.014  -1.756  25.138  0.00  0.00    +0.000 A 
BRANCH   5  16
ATOM     11  C   UNL     1      12.716   0.359  22.842  0.00  0.00    +0.000 A 
ATOM     12  C   UNL     1      12.857   1.441  21.902  0.00  0.00    +0.000 A 
ATOM     13  C   UNL     1      12.333   1.308  20.567  0.00  0.00    +0.000 A 
ATOM     14  C   UNL     1      12.475   2.391  19.627  0.00  0.00    +0.000 A 
ATOM     15  C   UNL     1      11.950   2.258  18.293  0.00  0.00    +0.000 A 
ATOM     16  C   UNL     1      13.240   0.491  24.176  0.00  0.00    +0.000 A 
BRANCH  11  18
ATOM     17  C   UNL     1      10.654  -0.963  22.613  0.00  0.00    +0.000 C 
ATOM     18  O   UNL     1      12.059  -0.839  22.452  0.00  0.00    +0.000 OA
ENDBRANCH  11  18
ENDBRANCH   5  16
ENDBRANCH   1   8
BRANCH   3  19
ATOM     19  C   UNL     1      10.692   2.982  28.631  0.00  0.00    +0.000 C 
BRANCH  19  20
ATOM     20  C   UNL     1      11.667   3.814  27.813  0.00  0.00    +0.000 C 
BRANCH  20  21
ATOM     21  C   UNL     1      12.408   4.774  28.729  0.00  0.00    +0.000 A 
ATOM     22  C   UNL     1      11.709   5.880  29.330  0.00  0.00    +0.000 A 
ATOM     23  C   UNL     1      10.231   6.090  29.047  0.00  0.00    +0.000 C 
ATOM     24  N   UNL     1      12.390   6.760  30.169  0.00  0.00    +0.000 N 
ATOM     25  C   UNL     1      13.744   6.568  30.429  0.00  0.00    +0.000 A 
ATOM     26  C   UNL     1      14.443   5.461  29.827  0.00  0.00    +0.000 A 
ATOM     27  C   UNL     1      13.740   4.552  28.959  0.00  0.00    +0.000 A 
ATOM     28  C   UNL     1      14.439   3.445  28.358  0.00  0.00    +0.000 A 
ATOM     29  C   UNL     1      13.736   2.536  27.490  0.00  0.00    +0.000 A 
ATOM     30  C   UNL     1      14.447   7.477  31.297  0.00  0.00    +0.000 A 
ATOM     31  H   UNL     1      11.895   7.544  30.595  0.00  0.00    +0.000 HD
ENDBRANCH  20  21
ENDBRANCH  19  20
ENDBRANCH   3  19
TORSDOF 6
ENDMDL
MODEL 6
REMARK VINA RESULT:    -7.573     27.899     31.481
REMARK INTER + INTRA:         -10.516
REMARK INTER:                 -11.954
REMARK INTRA:                   1.439
REMARK UNBOUND:                -0.286
REMARK  Name = 
REMARK  8 active torsions:
REMARK  status: ('A' for Active; 'I' for Inactive)
REMARK    1  A    between atoms: C_1  and  O_2
REMARK    2  A    between atoms: O_2  and  C_3
REMARK    3  A    between atoms: C_8  and  C_9
REMARK    4  A    between atoms: C_12  and  C_13
REMARK    5  A    between atoms: N_15  and  C_16
REMARK    6  A    between atoms: C_16  and  C_17
REMARK    7  A    between atoms: C_17  and  C_18
REMARK    8  A    between atoms: C_19  and  C_20
REMARK                            x       y       z     vdW  Elec       q    Type
REMARK                         _______ _______ _______ _____ _____    ______ ____
ROOT
ATOM      1  C   UNL     1      37.683  11.650  45.196  0.00  0.00    +0.000 C 
ATOM      2  O   UNL     1      37.238  11.029  46.212  0.00  0.00    +0.000 OA
ATOM      3  N   UNL     1      38.911  12.451  45.304  0.00  0.00    +0.000 N 
ATOM      4  H   UNL     1      39.406  12.510  46.194  0.00  0.00    +0.000 HD
ENDROOT
BRANCH   1   8
ATOM      5  C   UNL     1      35.366   8.924  41.620  0.00  0.00    +0.000 A 
ATOM      6  C   UNL     1      35.807  10.202  42.116  0.00  0.00    +0.000 A 
ATOM      7  C   UNL     1      36.505  10.284  43.374  0.00  0.00    +0.000 A 
ATOM      8  C   UNL     1      36.946  11.563  43.870  0.00  0.00    +0.000 A 
ATOM      9  C   UNL     1      36.689  12.758  43.109  0.00  0.00    +0.000 A 
ATOM     10  C   UNL     1      34.668   8.842  40.363  0.00  0.00    +0.000 A 
BRANCH   5  16
ATOM     11  C   UNL     1      35.874   6.414  41.744  0.00  0.00    +0.000 A 
ATOM     12  C   UNL     1      36.131   5.218  42.505  0.00  0.00    +0.000 A 
ATOM     13  C   UNL     1      36.368   3.970  41.826  0.00  0.00    +0.000 A 
ATOM     14  C   UNL     1      36.625   2.775  42.587  0.00  0.00    +0.000 A 
ATOM     15  C   UNL     1      36.862   1.527  41.908  0.00  0.00    +0.000 A 
ATOM     16  C   UNL     1      35.637   7.662  42.423  0.00  0.00    +0.000 A 
BRANCH  11  18
ATOM     17  C   UNL     1      34.957   5.488  39.658  0.00  0.00    +0.000 C 
ATOM     18  O   UNL     1      35.855   6.362  40.325  0.00  0.00    +0.000 OA
ENDBRANCH  11  18
ENDBRANCH   5  16
ENDBRANCH   1   8
BRANCH   3  19
ATOM     19  C   UNL     1      39.426  13.168  44.127  0.00  0.00    +0.000 C 
BRANCH  19  20
ATOM     20  C   UNL     1      40.886  12.801  43.910  0.00  0.00    +0.000 C 
BRANCH  20  21
ATOM     21  C   UNL     1      41.472  13.683  42.820  0.00  0.00    +0.000 A 
ATOM     22  C   UNL     1      40.966  13.598  41.475  0.00  0.00    +0.000 A 
ATOM     23  C   UNL     1      39.844  12.628  41.144  0.00  0.00    +0.000 C 
ATOM     24  N   UNL     1      41.504  14.407  40.476  0.00  0.00    +0.000 N 
ATOM     25  C   UNL     1      42.532  15.296  40.778  0.00  0.00    +0.000 A 
ATOM     26  C   UNL     1      43.039  15.380  42.125  0.00  0.00    +0.000 A 
ATOM     27  C   UNL     1      42.483  14.545  43.157  0.00  0.00    +0.000 A 
ATOM     28  C   UNL     1      42.989  14.629  44.502  0.00  0.00    +0.000 A 
ATOM     29  C   UNL     1      42.433  13.794  45.535  0.00  0.00    +0.000 A 
ATOM     30  C   UNL     1      43.089  16.132  39.746  0.00  0.00    +0.000 A 
ATOM     31  H   UNL     1      41.146  14.347  39.523  0.00  0.00    +0.000 HD
ENDBRANCH  20  21
ENDBRANCH  19  20
ENDBRANCH   3  19
TORSDOF 6
ENDMDL
MODEL 7
REMARK VINA RESULT:    -7.545      3.593      7.761
REMARK INTER + INTRA:         -10.478
REMARK INTER:                  -9.998
REMARK INTRA:                  -0.480
REMARK UNBOUND:                -0.286
REMARK  Name = 
REMARK  8 active torsions:
REMARK  status: ('A' for Active; 'I' for Inactive)
REMARK    1  A    between atoms: C_1  and  O_2
REMARK    2  A    between atoms: O_2  and  C_3
REMARK    3  A    between atoms: C_8  and  C_9
REMARK    4  A    between atoms: C_12  and  C_13
REMARK    5  A    between atoms: N_15  and  C_16
REMARK    6  A    between atoms: C_16  and  C_17
REMARK    7  A    between atoms: C_17  and  C_18
REMARK    8  A    between atoms: C_19  and  C_20
REMARK                            x       y       z     vdW  Elec       q    Type
REMARK                         _______ _______ _______ _____ _____    ______ ____
ROOT
ATOM      1  C   UNL     1      14.484   7.970  29.967  0.00  0.00    +0.000 C 
ATOM      2  O   UNL     1      15.458   8.634  30.444  0.00  0.00    +0.000 OA
ATOM      3  N   UNL     1      14.739   6.757  29.177  0.00  0.00    +0.000 N 
ATOM      4  H   UNL     1      15.697   6.448  29.011  0.00  0.00    +0.000 HD
ENDROOT
BRANCH   1   8
ATOM      5  C   UNL     1      10.456  10.726  28.638  0.00  0.00    +0.000 A 
ATOM      6  C   UNL     1      11.080   9.796  29.544  0.00  0.00    +0.000 A 
ATOM      7  C   UNL     1      12.433   9.360  29.309  0.00  0.00    +0.000 A 
ATOM      8  C   UNL     1      13.057   8.430  30.215  0.00  0.00    +0.000 A 
ATOM      9  C   UNL     1      12.329   7.937  31.355  0.00  0.00    +0.000 A 
ATOM     10  C   UNL     1       9.104  11.162  28.872  0.00  0.00    +0.000 A 
BRANCH   5  16
ATOM     11  C   UNL     1      11.209  10.511  26.196  0.00  0.00    +0.000 A 
ATOM     12  C   UNL     1      11.937  11.005  25.056  0.00  0.00    +0.000 A 
ATOM     13  C   UNL     1      11.922  10.269  23.818  0.00  0.00    +0.000 A 
ATOM     14  C   UNL     1      12.650  10.764  22.678  0.00  0.00    +0.000 A 
ATOM     15  C   UNL     1      12.635  10.028  21.440  0.00  0.00    +0.000 A 
ATOM     16  C   UNL     1      11.224  11.247  27.434  0.00  0.00    +0.000 A 
BRANCH  11  18
ATOM     17  C   UNL     1       9.148   9.308  25.600  0.00  0.00    +0.000 C 
ATOM     18  O   UNL     1      10.477   9.298  26.100  0.00  0.00    +0.000 OA
ENDBRANCH  11  18
ENDBRANCH   5  16
ENDBRANCH   1   8
BRANCH   3  19
ATOM     19  C   UNL     1      13.613   5.988  28.627  0.00  0.00    +0.000 C 
BRANCH  19  20
ATOM     20  C   UNL     1      13.541   4.633  29.313  0.00  0.00    +0.000 C 
BRANCH  20  21
ATOM     21  C   UNL     1      13.379   3.543  28.266  0.00  0.00    +0.000 A 
ATOM     22  C   UNL     1      14.518   3.098  27.506  0.00  0.00    +0.000 A 
ATOM     23  C   UNL     1      15.884   3.718  27.751  0.00  0.00    +0.000 C 
ATOM     24  N   UNL     1      14.368   2.100  26.547  0.00  0.00    +0.000 N 
ATOM     25  C   UNL     1      13.116   1.531  26.322  0.00  0.00    +0.000 A 
ATOM     26  C   UNL     1      11.976   1.977  27.082  0.00  0.00    +0.000 A 
ATOM     27  C   UNL     1      12.131   3.010  28.075  0.00  0.00    +0.000 A 
ATOM     28  C   UNL     1      10.992   3.455  28.834  0.00  0.00    +0.000 A 
ATOM     29  C   UNL     1      11.147   4.487  29.827  0.00  0.00    +0.000 A 
ATOM     30  C   UNL     1      12.961   0.499  25.331  0.00  0.00    +0.000 A 
ATOM     31  H   UNL     1      15.175   1.784  26.008  0.00  0.00    +0.000 HD
ENDBRANCH  20  21
ENDBRANCH  19  20
ENDBRANCH   3  19
TORSDOF 6
ENDMDL
MODEL 8
REMARK VINA RESULT:    -7.530      2.405      4.168
REMARK INTER + INTRA:         -10.458
REMARK INTER:                 -10.390
REMARK INTRA:                  -0.068
REMARK UNBOUND:                -0.286
REMARK  Name = 
REMARK  8 active torsions:
REMARK  status: ('A' for Active; 'I' for Inactive)
REMARK    1  A    between atoms: C_1  and  O_2
REMARK    2  A    between atoms: O_2  and  C_3
REMARK    3  A    between atoms: C_8  and  C_9
REMARK    4  A    between atoms: C_12  and  C_13
REMARK    5  A    between atoms: N_15  and  C_16
REMARK    6  A    between atoms: C_16  and  C_17
REMARK    7  A    between atoms: C_17  and  C_18
REMARK    8  A    between atoms: C_19  and  C_20
REMARK                            x       y       z     vdW  Elec       q    Type
REMARK                         _______ _______ _______ _____ _____    ______ ____
ROOT
ATOM      1  C   UNL     1       9.148   1.325  27.036  0.00  0.00    +0.000 C 
ATOM      2  O   UNL     1       7.934   0.969  26.923  0.00  0.00    +0.000 OA
ATOM      3  N   UNL     1       9.487   2.749  27.176  0.00  0.00    +0.000 N 
ATOM      4  H   UNL     1       8.747   3.451  27.182  0.00  0.00    +0.000 HD
ENDROOT
BRANCH   1   8
ATOM      5  C   UNL     1      13.442  -0.524  25.105  0.00  0.00    +0.000 A 
ATOM      6  C   UNL     1      12.369  -0.618  26.061  0.00  0.00    +0.000 A 
ATOM      7  C   UNL     1      11.324   0.374  26.070  0.00  0.00    +0.000 A 
ATOM      8  C   UNL     1      10.251   0.280  27.026  0.00  0.00    +0.000 A 
ATOM      9  C   UNL     1      10.223  -0.805  27.973  0.00  0.00    +0.000 A 
ATOM     10  C   UNL     1      14.487  -1.515  25.096  0.00  0.00    +0.000 A 
BRANCH   5  16
ATOM     11  C   UNL     1      12.893   0.451  22.798  0.00  0.00    +0.000 A 
ATOM     12  C   UNL     1      12.922   1.537  21.852  0.00  0.00    +0.000 A 
ATOM     13  C   UNL     1      12.342   1.367  20.545  0.00  0.00    +0.000 A 
ATOM     14  C   UNL     1      12.371   2.453  19.598  0.00  0.00    +0.000 A 
ATOM     15  C   UNL     1      11.791   2.283  18.291  0.00  0.00    +0.000 A 
ATOM     16  C   UNL     1      13.473   0.621  24.106  0.00  0.00    +0.000 A 
BRANCH  11  18
ATOM     17  C   UNL     1      10.884  -0.944  22.538  0.00  0.00    +0.000 C 
ATOM     18  O   UNL     1      12.292  -0.785  22.443  0.00  0.00    +0.000 OA
ENDBRANCH  11  18
ENDBRANCH   5  16
ENDBRANCH   1   8
BRANCH   3  19
ATOM     19  C   UNL     1      10.892   3.161  27.308  0.00  0.00    +0.000 C 
BRANCH  19  20
ATOM     20  C   UNL     1      11.249   3.280  28.781  0.00  0.00    +0.000 C 
BRANCH  20  21
ATOM     21  C   UNL     1      12.156   4.483  28.986  0.00  0.00    +0.000 A 
ATOM     22  C   UNL     1      13.500   4.468  28.470  0.00  0.00    +0.000 A 
ATOM     23  C   UNL     1      14.013   3.250  27.719  0.00  0.00    +0.000 C 
ATOM     24  N   UNL     1      14.330   5.570  28.659  0.00  0.00    +0.000 N 
ATOM     25  C   UNL     1      13.861   6.687  29.347  0.00  0.00    +0.000 A 
ATOM     26  C   UNL     1      12.516   6.701  29.864  0.00  0.00    +0.000 A 
ATOM     27  C   UNL     1      11.657   5.561  29.669  0.00  0.00    +0.000 A 
ATOM     28  C   UNL     1      10.313   5.576  30.185  0.00  0.00    +0.000 A 
ATOM     29  C   UNL     1       9.454   4.436  29.990  0.00  0.00    +0.000 A 
ATOM     30  C   UNL     1      14.719   7.826  29.542  0.00  0.00    +0.000 A 
ATOM     31  H   UNL     1      15.283   5.560  28.293  0.00  0.00    +0.000 HD
ENDBRANCH  20  21
ENDBRANCH  19  20
ENDBRANCH   3  19
TORSDOF 6
ENDMDL
MODEL 9
REMARK VINA RESULT:    -7.528      2.531      4.217
REMARK INTER + INTRA:         -10.455
REMARK INTER:                 -10.269
REMARK INTRA:                  -0.186
REMARK UNBOUND:                -0.286
REMARK  Name = 
REMARK  8 active torsions:
REMARK  status: ('A' for Active; 'I' for Inactive)
REMARK    1  A    between atoms: C_1  and  O_2
REMARK    2  A    between atoms: O_2  and  C_3
REMARK    3  A    between atoms: C_8  and  C_9
REMARK    4  A    between atoms: C_12  and  C_13
REMARK    5  A    between atoms: N_15  and  C_16
REMARK    6  A    between atoms: C_16  and  C_17
REMARK    7  A    between atoms: C_17  and  C_18
REMARK    8  A    between atoms: C_19  and  C_20
REMARK                            x       y       z     vdW  Elec       q    Type
REMARK                         _______ _______ _______ _____ _____    ______ ____
ROOT
ATOM      1  C   UNL     1      14.449   3.589  30.095  0.00  0.00    +0.000 C 
ATOM      2  O   UNL     1      14.915   2.754  30.932  0.00  0.00    +0.000 OA
ATOM      3  N   UNL     1      13.671   4.744  30.566  0.00  0.00    +0.000 N 
ATOM      4  H   UNL     1      13.505   4.875  31.564  0.00  0.00    +0.000 HD
ENDROOT
BRANCH   1   8
ATOM      5  C   UNL     1      13.679   1.021  25.806  0.00  0.00    +0.000 A 
ATOM      6  C   UNL     1      14.305   2.115  26.502  0.00  0.00    +0.000 A 
ATOM      7  C   UNL     1      14.070   2.300  27.912  0.00  0.00    +0.000 A 
ATOM      8  C   UNL     1      14.696   3.394  28.608  0.00  0.00    +0.000 A 
ATOM      9  C   UNL     1      15.557   4.303  27.896  0.00  0.00    +0.000 A 
ATOM     10  C   UNL     1      13.913   0.837  24.397  0.00  0.00    +0.000 A 
BRANCH   5  16
ATOM     11  C   UNL     1      11.343   0.256  26.538  0.00  0.00    +0.000 A 
ATOM     12  C   UNL     1      10.483  -0.654  27.250  0.00  0.00    +0.000 A 
ATOM     13  C   UNL     1       9.056  -0.459  27.231  0.00  0.00    +0.000 A 
ATOM     14  C   UNL     1       8.196  -1.369  27.943  0.00  0.00    +0.000 A 
ATOM     15  C   UNL     1       6.770  -1.174  27.924  0.00  0.00    +0.000 A 
ATOM     16  C   UNL     1      12.770   0.061  26.557  0.00  0.00    +0.000 A 
BRANCH  11  18
ATOM     17  C   UNL     1      10.540   2.580  26.475  0.00  0.00    +0.000 C 
ATOM     18  O   UNL     1      10.785   1.345  25.818  0.00  0.00    +0.000 OA
ENDBRANCH  11  18
ENDBRANCH   5  16
ENDBRANCH   1   8
BRANCH   3  19
ATOM     19  C   UNL     1      13.133   5.711  29.598  0.00  0.00    +0.000 C 
BRANCH  19  20
ATOM     20  C   UNL     1      12.156   6.641  30.300  0.00  0.00    +0.000 C 
BRANCH  20  21
ATOM     21  C   UNL     1      12.031   7.934  29.511  0.00  0.00    +0.000 A 
ATOM     22  C   UNL     1      13.097   8.901  29.540  0.00  0.00    +0.000 A 
ATOM     23  C   UNL     1      14.348   8.630  30.358  0.00  0.00    +0.000 C 
ATOM     24  N   UNL     1      12.981  10.086  28.816  0.00  0.00    +0.000 N 
ATOM     25  C   UNL     1      11.835  10.336  28.066  0.00  0.00    +0.000 A 
ATOM     26  C   UNL     1      10.767   9.368  28.038  0.00  0.00    +0.000 A 
ATOM     27  C   UNL     1      10.887   8.142  28.786  0.00  0.00    +0.000 A 
ATOM     28  C   UNL     1       9.821   7.175  28.758  0.00  0.00    +0.000 A 
ATOM     29  C   UNL     1       9.940   5.950  29.505  0.00  0.00    +0.000 A 
ATOM     30  C   UNL     1      11.715  11.560  27.318  0.00  0.00    +0.000 A 
ATOM     31  H   UNL     1      13.736  10.772  28.836  0.00  0.00    +0.000 HD
ENDBRANCH  20  21
ENDBRANCH  19  20
ENDBRANCH   3  19
TORSDOF 6
ENDMDL
MODEL 10
REMARK VINA RESULT:    -7.298      3.195      7.981
REMARK INTER + INTRA:         -10.144
REMARK INTER:                  -8.610
REMARK INTRA:                  -1.534
REMARK UNBOUND:                -0.286
REMARK  Name = 
REMARK  8 active torsions:
REMARK  status: ('A' for Active; 'I' for Inactive)
REMARK    1  A    between atoms: C_1  and  O_2
REMARK    2  A    between atoms: O_2  and  C_3
REMARK    3  A    between atoms: C_8  and  C_9
REMARK    4  A    between atoms: C_12  and  C_13
REMARK    5  A    between atoms: N_15  and  C_16
REMARK    6  A    between atoms: C_16  and  C_17
REMARK    7  A    between atoms: C_17  and  C_18
REMARK    8  A    between atoms: C_19  and  C_20
REMARK                            x       y       z     vdW  Elec       q    Type
REMARK                         _______ _______ _______ _____ _____    ______ ____
ROOT
ATOM      1  C   UNL     1      10.272   2.132  22.659  0.00  0.00    +0.000 C 
ATOM      2  O   UNL     1      10.278   3.384  22.445  0.00  0.00    +0.000 OA
ATOM      3  N   UNL     1       9.008   1.383  22.603  0.00  0.00    +0.000 N 
ATOM      4  H   UNL     1       8.136   1.868  22.393  0.00  0.00    +0.000 HD
ENDROOT
BRANCH   1   8
ATOM      5  C   UNL     1      13.819   0.684  25.962  0.00  0.00    +0.000 A 
ATOM      6  C   UNL     1      13.311   0.702  24.614  0.00  0.00    +0.000 A 
ATOM      7  C   UNL     1      12.079   1.389  24.319  0.00  0.00    +0.000 A 
ATOM      8  C   UNL     1      11.571   1.407  22.971  0.00  0.00    +0.000 A 
ATOM      9  C   UNL     1      12.294   0.739  21.919  0.00  0.00    +0.000 A 
ATOM     10  C   UNL     1      15.050  -0.002  26.258  0.00  0.00    +0.000 A 
BRANCH   5  16
ATOM     11  C   UNL     1      13.519   2.659  27.570  0.00  0.00    +0.000 A 
ATOM     12  C   UNL     1      12.795   3.326  28.622  0.00  0.00    +0.000 A 
ATOM     13  C   UNL     1      13.258   4.596  29.120  0.00  0.00    +0.000 A 
ATOM     14  C   UNL     1      12.534   5.263  30.172  0.00  0.00    +0.000 A 
ATOM     15  C   UNL     1      12.997   6.533  30.670  0.00  0.00    +0.000 A 
ATOM     16  C   UNL     1      13.056   1.389  27.072  0.00  0.00    +0.000 A 
BRANCH  11  18
ATOM     17  C   UNL     1      15.907   3.216  27.749  0.00  0.00    +0.000 C 
ATOM     18  O   UNL     1      14.687   3.253  27.024  0.00  0.00    +0.000 OA
ENDBRANCH  11  18
ENDBRANCH   5  16
ENDBRANCH   1   8
BRANCH   3  19
ATOM     19  C   UNL     1       9.001  -0.067  22.849  0.00  0.00    +0.000 C 
BRANCH  19  20
ATOM     20  C   UNL     1       8.385  -0.346  24.211  0.00  0.00    +0.000 C 
BRANCH  20  21
ATOM     21  C   UNL     1       9.439  -0.939  25.132  0.00  0.00    +0.000 A 
ATOM     22  C   UNL     1      10.279  -2.012  24.668  0.00  0.00    +0.000 A 
ATOM     23  C   UNL     1      10.113  -2.553  23.258  0.00  0.00    +0.000 C 
ATOM     24  N   UNL     1      11.245  -2.555  25.513  0.00  0.00    +0.000 N 
ATOM     25  C   UNL     1      11.398  -2.060  26.806  0.00  0.00    +0.000 A 
ATOM     26  C   UNL     1      10.556  -0.986  27.270  0.00  0.00    +0.000 A 
ATOM     27  C   UNL     1       9.558  -0.424  26.396  0.00  0.00    +0.000 A 
ATOM     28  C   UNL     1       8.718   0.649  26.860  0.00  0.00    +0.000 A 
ATOM     29  C   UNL     1       7.719   1.210  25.987  0.00  0.00    +0.000 A 
ATOM     30  C   UNL     1      12.396  -2.620  27.679  0.00  0.00    +0.000 A 
ATOM     31  H   UNL     1      11.841  -3.315  25.185  0.00  0.00    +0.000 HD
ENDBRANCH  20  21
ENDBRANCH  19  20
ENDBRANCH   3  19
TORSDOF 6
ENDMDL
