REMARK  Name = 
REMARK  6 active torsions:
REMARK  status: ('A' for Active; 'I' for Inactive)
REMARK    1  A    between atoms: C_1  and  C_2
REMARK    2  A    between atoms: C_7  and  C_8
REMARK    3  A    between atoms: N_10  and  N_11
REMARK    4  A    between atoms: N_11  and  C_12
REMARK    5  A    between atoms: C_12  and  N_14
REMARK    6  A    between atoms: C_15  and  C_17
REMARK                            x       y       z     vdW  Elec       q    Type
REMARK                         _______ _______ _______ _____ _____    ______ ____
ROOT
ATOM      1  N   UNL     1      -2.090  -2.012  -3.881  0.00  0.00    +0.000 N 
ATOM      2  H   UNL     1      -1.844  -1.060  -4.153  0.00  0.00    +0.000 HD
ENDROOT
BRANCH   1   5
ATOM      3  C   UNL     1      -0.772  -1.724  -1.773  0.00  0.00    +0.000 C 
ATOM      4  O   UNL     1      -0.348  -2.200  -0.674  0.00  0.00    +0.000 OA
ATOM      5  N   UNL     1      -1.617  -2.544  -2.652  0.00  0.00    +0.000 N 
ATOM      6  H   UNL     1      -1.863  -3.496  -2.380  0.00  0.00    +0.000 HD
BRANCH   3  13
ATOM      7  C   UNL     1       0.930  -0.072  -0.002  0.00  0.00    +0.000 C 
ATOM      8  C   UNL     1       0.424   0.498  -1.317  0.00  0.00    +0.000 A 
ATOM      9  C   UNL     1       0.772   1.842  -1.701  0.00  0.00    +0.000 A 
ATOM     10  C   UNL     1       1.600   2.646  -0.839  0.00  0.00    +0.000 A 
ATOM     11  C   UNL     1       1.947   3.989  -1.223  0.00  0.00    +0.000 A 
ATOM     12  C   UNL     1       2.775   4.793  -0.362  0.00  0.00    +0.000 A 
ATOM     13  C   UNL     1      -0.404  -0.306  -2.178  0.00  0.00    +0.000 A 
ENDBRANCH   3  13
ENDBRANCH   1   5
BRANCH   1  14
ATOM     14  C   UNL     1      -2.935  -2.832  -4.760  0.00  0.00    +0.000 C 
ATOM     15  S   UNL     1      -3.475  -2.225  -6.162  0.00  0.00    +0.000 S 
BRANCH  14  16
ATOM     16  N   UNL     1      -3.290  -4.204  -4.368  0.00  0.00    +0.000 N 
ATOM     17  C   UNL     1      -2.800  -4.755  -3.097  0.00  0.00    +0.000 C 
ATOM     18  O   UNL     1      -3.107  -5.941  -2.758  0.00  0.00    +0.000 OA
ATOM     19  H   UNL     1      -3.877  -4.773  -4.979  0.00  0.00    +0.000 HD
BRANCH  17  20
ATOM     20  C   UNL     1      -1.926  -3.907  -2.187  0.00  0.00    +0.000 A 
ATOM     21  C   UNL     1      -1.446  -4.446  -0.941  0.00  0.00    +0.000 A 
ATOM     22  C   UNL     1      -1.794  -5.790  -0.557  0.00  0.00    +0.000 A 
ATOM     23  C   UNL     1      -1.314  -6.330   0.689  0.00  0.00    +0.000 A 
ATOM     24  C   UNL     1      -1.662  -7.674   1.073  0.00  0.00    +0.000 A 
ATOM     25  C   UNL     1      -1.578  -2.563  -2.571  0.00  0.00    +0.000 A 
ENDBRANCH  17  20
ENDBRANCH  14  16
ENDBRANCH   1  14
TORSDOF 5
