REMARK  Name = 
REMARK  7 active torsions:
REMARK  status: ('A' for Active; 'I' for Inactive)
REMARK    1  A    between atoms: C_1  and  C_2
REMARK    2  A    between atoms: N_5  and  C_6
REMARK    3  A    between atoms: C_8  and  N_9
REMARK    4  A    between atoms: N_12  and  C_13
REMARK    5  A    between atoms: C_18  and  N_19
REMARK    6  A    between atoms: C_20  and  C_22
REMARK    7  A    between atoms: C_25  and  C_26
REMARK                            x       y       z     vdW  Elec       q    Type
REMARK                         _______ _______ _______ _____ _____    ______ ____
ROOT
ATOM      1  C   UNL     1      -2.068  -0.448  -3.880  0.00  0.00    +0.000 A 
ATOM      2  C   UNL     1      -3.484  -0.414  -3.619  0.00  0.00    +0.000 A 
ATOM      3  C   UNL     1      -3.964  -0.236  -2.273  0.00  0.00    +0.000 A 
ATOM      4  C   UNL     1      -3.028  -0.092  -1.187  0.00  0.00    +0.000 A 
ATOM      5  C   UNL     1      -1.612  -0.126  -1.448  0.00  0.00    +0.000 A 
ATOM      6  C   UNL     1      -1.588  -0.627  -5.226  0.00  0.00    +0.000 A 
ENDROOT
BRANCH   1  11
ATOM      7  C   UNL     1       0.931   0.068   0.023  0.00  0.00    +0.000 C 
ATOM      8  C   UNL     1       0.424  -1.256  -0.525  0.00  0.00    +0.000 C 
ATOM      9  C   UNL     1      -1.096  -1.256  -0.525  0.00  0.00    +0.000 C 
ATOM     10  C   UNL     1      -1.603  -0.120  -1.398  0.00  0.00    +0.000 C 
ATOM     11  N   UNL     1      -1.113  -0.302  -2.772  0.00  0.00    +0.000 N 
ATOM     12  C   UNL     1       0.333  -0.337  -3.038  0.00  0.00    +0.000 C 
ATOM     13  C   UNL     1       0.931  -2.392   0.349  0.00  0.00    +0.000 C 
ENDBRANCH   1  11
BRANCH   3  14
ATOM     14  N   UNL     1      -5.409  -0.200  -2.006  0.00  0.00    +0.000 N 
ATOM     15  C   UNL     1      -6.365  -0.347  -3.114  0.00  0.00    +0.000 C 
ATOM     16  C   UNL     1      -6.149   0.772  -4.120  0.00  0.00    +0.000 C 
ATOM     17  N   UNL     1      -4.777   0.702  -4.644  0.00  0.00    +0.000 NA
ATOM     18  C   UNL     1      -4.569   1.784  -5.617  0.00  0.00    +0.000 C 
ATOM     19  C   UNL     1      -3.822   0.849  -3.536  0.00  0.00    +0.000 C 
ATOM     20  C   UNL     1      -5.899  -0.018  -0.632  0.00  0.00    +0.000 C 
ENDBRANCH   3  14
BRANCH   6  21
ATOM     21  N   UNL     1      -0.143  -0.662  -5.492  0.00  0.00    +0.000 N 
ATOM     22  C   UNL     1       0.813  -0.515  -4.384  0.00  0.00    +0.000 C 
ATOM     23  O   UNL     1       2.062  -0.546  -4.615  0.00  0.00    +0.000 OA
ATOM     24  H   UNL     1       0.197  -0.788  -6.445  0.00  0.00    +0.000 HD
BRANCH  22  25
ATOM     25  C   UNL     1       0.306  -0.327  -2.964  0.00  0.00    +0.000 A 
ATOM     26  C   UNL     1       1.242  -0.183  -1.878  0.00  0.00    +0.000 A 
ATOM     27  C   UNL     1       2.658  -0.218  -2.139  0.00  0.00    +0.000 A 
ATOM     28  C   UNL     1       3.594  -0.074  -1.054  0.00  0.00    +0.000 A 
ATOM     29  O   UNL     1      -1.017  -0.295  -2.720  0.00  0.00    +0.000 OA
BRANCH  28  30
ATOM     30  C   UNL     1       3.087   0.114   0.367  0.00  0.00    +0.000 C 
ATOM     31  N   UNL     1       2.667   0.270   1.545  0.00  0.00    +0.000 NA
ENDBRANCH  28  30
ENDBRANCH  22  25
ENDBRANCH   6  21
TORSDOF 5
