REMARK  Name = 
REMARK  12 active torsions:
REMARK  status: ('A' for Active; 'I' for Inactive)
REMARK    1  A    between atoms: C_1  and  C_2
REMARK    2  A    between atoms: C_2  and  C_3
REMARK    3  A    between atoms: C_2  and  N_11
REMARK    4  A    between atoms: C_3  and  C_4
REMARK    5  A    between atoms: C_4  and  C_5
REMARK    6  A    between atoms: C_12  and  C_14
REMARK    7  A    between atoms: C_14  and  O_15
REMARK    8  A    between atoms: O_15  and  C_16
REMARK    9  A    between atoms: C_16  and  C_18
REMARK   10  A    between atoms: C_21  and  S_22
REMARK   11  A    between atoms: S_22  and  C_23
REMARK   12  A    between atoms: C_26  and  N_27
REMARK                            x       y       z     vdW  Elec       q    Type
REMARK                         _______ _______ _______ _____ _____    ______ ____
ROOT
ATOM      1  O   UNL     1      -0.123   1.281   3.220  0.00  0.00    +0.000 OA
ENDROOT
BRANCH   1   2
ATOM      2  C   UNL     1      -0.715   0.047   3.597  0.00  0.00    +0.000 C 
ATOM      3  O   UNL     1      -1.975  -0.102   3.527  0.00  0.00    +0.000 OA
BRANCH   2   4
ATOM      4  C   UNL     1       0.159  -1.097   4.086  0.00  0.00    +0.000 A 
ATOM      5  C   UNL     1      -0.441  -2.349   4.469  0.00  0.00    +0.000 A 
ATOM      6  C   UNL     1      -1.869  -2.517   4.388  0.00  0.00    +0.000 A 
ATOM      7  C   UNL     1      -2.469  -3.770   4.771  0.00  0.00    +0.000 A 
ATOM      8  C   UNL     1      -1.641  -4.853   5.234  0.00  0.00    +0.000 A 
ATOM      9  C   UNL     1       1.587  -0.929   4.166  0.00  0.00    +0.000 A 
BRANCH   7  10
ATOM     10  S   UNL     1      -4.264  -3.981   4.670  0.00  0.00    +0.000 S 
ATOM     11  C   UNL     1      -4.649  -5.340   3.538  0.00  0.00    +0.000 C 
ATOM     12  O   UNL     1      -4.819  -4.303   6.060  0.00  0.00    +0.000 OA
ATOM     13  O   UNL     1      -4.902  -2.690   4.153  0.00  0.00    +0.000 OA
ENDBRANCH   7  10
BRANCH   8  14
ATOM     14  N   UNL     1      -2.254  -6.131   5.624  0.00  0.00    +0.000 N 
ATOM     15  O   UNL     1      -3.470  -6.275   5.556  0.00  0.00    +0.000 OA
ATOM     16  O   UNL     1      -1.466  -7.162   6.065  0.00  0.00    +0.000 OA
ENDBRANCH   8  14
ENDBRANCH   2   4
ENDBRANCH   1   2
BRANCH   1  17
ATOM     17  C   UNL     1      -0.940   2.350   2.764  0.00  0.00    +0.000 C 
BRANCH  17  19
ATOM     18  N   UNL     1      -0.965   1.489   0.322  0.00  0.00    +0.000 N 
ATOM     19  C   UNL     1      -1.700   1.912   1.522  0.00  0.00    +0.000 C 
ATOM     20  O   UNL     1      -2.970   1.912   1.522  0.00  0.00    +0.000 OA
ATOM     21  H   UNL     1      -1.475   1.195  -0.512  0.00  0.00    +0.000 HD
BRANCH  18  23
ATOM     22  C   UNL     1       1.012   0.080   0.058  0.00  0.00    +0.000 C 
ATOM     23  C   UNL     1       0.505   1.489   0.322  0.00  0.00    +0.000 C 
BRANCH  23  24
ATOM     24  C   UNL     1       1.012   2.421  -0.767  0.00  0.00    +0.000 C 
BRANCH  24  25
ATOM     25  C   UNL     1       0.505   1.945  -2.118  0.00  0.00    +0.000 C 
BRANCH  25  26
ATOM     26  C   UNL     1      -1.015   1.945  -2.118  0.00  0.00    +0.000 A 
ATOM     27  C   UNL     1      -1.735   1.134  -1.171  0.00  0.00    +0.000 A 
ATOM     28  C   UNL     1      -1.015   0.322  -0.224  0.00  0.00    +0.000 A 
ATOM     29  C   UNL     1      -1.735  -0.489   0.723  0.00  0.00    +0.000 A 
ATOM     30  C   UNL     1      -1.015  -1.301   1.671  0.00  0.00    +0.000 A 
ATOM     31  C   UNL     1      -1.735   2.756  -3.066  0.00  0.00    +0.000 A 
ENDBRANCH  25  26
ENDBRANCH  24  25
ENDBRANCH  23  24
ENDBRANCH  18  23
ENDBRANCH  17  19
ENDBRANCH   1  17
TORSDOF 10
