REMARK  Name = 
REMARK  7 active torsions:
REMARK  status: ('A' for Active; 'I' for Inactive)
REMARK    1  A    between atoms: C_2  and  C_3
REMARK    2  A    between atoms: C_2  and  C_16
REMARK    3  A    between atoms: C_4  and  N_5
REMARK    4  A    between atoms: N_5  and  C_6
REMARK    5  A    between atoms: C_10  and  C_11
REMARK    6  A    between atoms: C_19  and  O_20
REMARK    7  A    between atoms: O_20  and  C_21
REMARK                            x       y       z     vdW  Elec       q    Type
REMARK                         _______ _______ _______ _____ _____    ______ ____
ROOT
ATOM      1  O   UNL     1       0.932   0.019  -0.071  0.00  0.00    +0.000 OA
ATOM      2  C   UNL     1       2.203   0.019  -0.071  0.00  0.00    +0.000 C 
ENDROOT
BRANCH   2   3
ATOM      3  C   UNL     1       2.963  -1.268   0.207  0.00  0.00    +0.000 A 
ATOM      4  C   UNL     1       4.403  -1.268   0.207  0.00  0.00    +0.000 A 
ATOM      5  C   UNL     1       5.123  -0.049  -0.056  0.00  0.00    +0.000 A 
ATOM      6  C   UNL     1       6.563  -0.049  -0.056  0.00  0.00    +0.000 A 
ATOM      7  C   UNL     1       7.284  -1.268   0.207  0.00  0.00    +0.000 A 
ATOM      8  C   UNL     1       2.243  -2.487   0.471  0.00  0.00    +0.000 A 
BRANCH   6   9
ATOM      9  O   UNL     1       7.273   1.153  -0.316  0.00  0.00    +0.000 OA
BRANCH   9  10
ATOM     10  C   UNL     1       6.563   2.355  -0.576  0.00  0.00    +0.000 A 
ATOM     11  N   UNL     1       7.260   3.534  -0.831  0.00  0.00    +0.000 NA
ATOM     12  C   UNL     1       6.563   4.713  -1.086  0.00  0.00    +0.000 A 
ATOM     13  C   UNL     1       5.123   4.713  -1.086  0.00  0.00    +0.000 A 
ATOM     14  C   UNL     1       4.403   5.932  -1.350  0.00  0.00    +0.000 A 
ATOM     15  N   UNL     1       5.171   2.355  -0.576  0.00  0.00    +0.000 NA
ENDBRANCH   9  10
ENDBRANCH   6   9
ENDBRANCH   2   3
BRANCH   2  16
ATOM     16  C   UNL     1       2.963   1.305  -0.349  0.00  0.00    +0.000 C 
ATOM     17  C   UNL     1       4.323   1.305  -0.349  0.00  0.00    +0.000 C 
BRANCH  17  18
ATOM     18  N   UNL     1       5.058   2.550  -0.618  0.00  0.00    +0.000 N 
ATOM     19  H   UNL     1       4.548   3.413  -0.805  0.00  0.00    +0.000 HD
BRANCH  18  20
ATOM     20  C   UNL     1       6.528   2.550  -0.618  0.00  0.00    +0.000 A 
ATOM     21  C   UNL     1       7.248   1.331  -0.355  0.00  0.00    +0.000 A 
ATOM     22  C   UNL     1       6.528   0.112  -0.091  0.00  0.00    +0.000 A 
ATOM     23  C   UNL     1       7.248  -1.107   0.173  0.00  0.00    +0.000 A 
ATOM     24  C   UNL     1       6.528  -2.327   0.436  0.00  0.00    +0.000 A 
ATOM     25  C   UNL     1       7.248   3.769  -0.882  0.00  0.00    +0.000 A 
BRANCH  24  26
ATOM     26  C   UNL     1       5.008  -2.327   0.436  0.00  0.00    +0.000 C 
ATOM     27  F   UNL     1       4.565  -1.484   1.365  0.00  0.00    +0.000 F 
ATOM     28  F   UNL     1       4.565  -1.943  -0.758  0.00  0.00    +0.000 F 
ATOM     29  F   UNL     1       4.565  -3.552   0.701  0.00  0.00    +0.000 F 
ENDBRANCH  24  26
ENDBRANCH  18  20
ENDBRANCH  17  18
ENDBRANCH   2  16
TORSDOF 7
