REMARK  Name = 
REMARK  4 active torsions:
REMARK  status: ('A' for Active; 'I' for Inactive)
REMARK    1  A    between atoms: C_1  and  C_2
REMARK    2  A    between atoms: C_5  and  N_6
REMARK    3  A    between atoms: N_6  and  N_7
REMARK    4  A    between atoms: C_11  and  C_12
REMARK                            x       y       z     vdW  Elec       q    Type
REMARK                         _______ _______ _______ _____ _____    ______ ____
ROOT
ATOM      1  N   UNL     1       3.270  -2.606  -5.618  0.00  0.00    +0.000 N 
ATOM      2  C   UNL     1       2.780  -3.985  -5.754  0.00  0.00    +0.000 C 
ATOM      3  O   UNL     1       2.049  -4.493  -4.847  0.00  0.00    +0.000 OA
ATOM      4  C   UNL     1       3.147  -4.804  -6.981  0.00  0.00    +0.000 C 
ATOM      5  C   UNL     1       3.929  -4.261  -7.952  0.00  0.00    +0.000 C 
ATOM      6  C   UNL     1       4.115  -2.019  -6.667  0.00  0.00    +0.000 C 
ATOM      7  O   UNL     1       4.539  -0.827  -6.549  0.00  0.00    +0.000 OA
ENDROOT
BRANCH   5   8
ATOM      8  C   UNL     1       4.436  -2.835  -7.811  0.00  0.00    +0.000 A 
ATOM      9  C   UNL     1       5.264  -2.260  -8.840  0.00  0.00    +0.000 A 
ATOM     10  C   UNL     1       5.612  -3.036 -10.002  0.00  0.00    +0.000 A 
ATOM     11  C   UNL     1       6.440  -2.461 -11.030  0.00  0.00    +0.000 A 
ATOM     12 CL   UNL     1       6.870  -3.420 -12.467  0.00  0.00    +0.000 Cl
ATOM     13  C   UNL     1       6.920  -1.110 -10.897  0.00  0.00    +0.000 A 
ATOM     14  C   UNL     1       4.088  -2.059  -6.649  0.00  0.00    +0.000 A 
ENDBRANCH   5   8
BRANCH   1  15
ATOM     15  N   UNL     1       2.927  -1.841  -4.472  0.00  0.00    +0.000 N 
ATOM     16  H   UNL     1       3.267  -0.884  -4.377  0.00  0.00    +0.000 HD
BRANCH  15  21
ATOM     17  C   UNL     1       1.065  -0.025   0.072  0.00  0.00    +0.000 C 
ATOM     18  C   UNL     1       0.558  -1.451  -0.069  0.00  0.00    +0.000 A 
ATOM     19  C   UNL     1       0.906  -2.227  -1.231  0.00  0.00    +0.000 A 
ATOM     20  C   UNL     1       1.734  -1.652  -2.260  0.00  0.00    +0.000 A 
ATOM     21  C   UNL     1       2.082  -2.428  -3.422  0.00  0.00    +0.000 A 
ATOM     22  C   UNL     1       1.602  -3.779  -3.556  0.00  0.00    +0.000 A 
ATOM     23  C   UNL     1      -0.270  -2.026   0.960  0.00  0.00    +0.000 A 
ENDBRANCH  15  21
ENDBRANCH   1  15
TORSDOF 3
