REMARK  Name = 
REMARK  11 active torsions:
REMARK  status: ('A' for Active; 'I' for Inactive)
REMARK    1  A    between atoms: C_1  and  O_2
REMARK    2  A    between atoms: O_2  and  C_3
REMARK    3  A    between atoms: C_6  and  C_7
REMARK    4  A    between atoms: N_9  and  C_10
REMARK    5  A    between atoms: C_17  and  C_18
REMARK    6  A    between atoms: C_19  and  C_20
REMARK    7  A    between atoms: C_20  and  O_22
REMARK    8  A    between atoms: O_22  and  C_23
REMARK    9  A    between atoms: C_23  and  C_24
REMARK   10  A    between atoms: N_26  and  C_27
REMARK   11  A    between atoms: C_32  and  C_33
REMARK                            x       y       z     vdW  Elec       q    Type
REMARK                         _______ _______ _______ _____ _____    ______ ____
ROOT
ATOM      1  C   UNL     1      -1.761  -3.681   4.685  0.00  0.00    +0.000 A 
ATOM      2  N   UNL     1      -2.097  -2.347   4.899  0.00  0.00    +0.000 NA
ATOM      3  N   UNL     1      -2.871  -2.007   5.946  0.00  0.00    +0.000 N 
ATOM      4  C   UNL     1      -3.207  -0.672   6.159  0.00  0.00    +0.000 A 
ATOM      5  C   UNL     1      -2.241  -4.698   5.586  0.00  0.00    +0.000 A 
ENDROOT
BRANCH   1   9
ATOM      6  C   UNL     1       0.901  -2.395   0.581  0.00  0.00    +0.000 A 
ATOM      7  C   UNL     1       0.421  -3.412   1.481  0.00  0.00    +0.000 A 
ATOM      8  C   UNL     1      -0.407  -3.048   2.602  0.00  0.00    +0.000 A 
ATOM      9  C   UNL     1      -0.887  -4.065   3.502  0.00  0.00    +0.000 A 
ATOM     10  C   UNL     1      -0.539  -5.445   3.282  0.00  0.00    +0.000 A 
ATOM     11  C   UNL     1       1.729  -2.759  -0.540  0.00  0.00    +0.000 A 
BRANCH   6  13
ATOM     12  C   UNL     1       1.031  -0.033  -0.089  0.00  0.00    +0.000 C 
ATOM     13  O   UNL     1       0.558  -1.035   0.798  0.00  0.00    +0.000 OA
ENDBRANCH   6  13
ENDBRANCH   1   9
BRANCH   3  14
ATOM     14  C   UNL     1      -3.361  -3.044   6.865  0.00  0.00    +0.000 A 
ATOM     15  C   UNL     1      -3.013  -4.424   6.644  0.00  0.00    +0.000 A 
ATOM     16  C   UNL     1      -2.185  -4.788   5.523  0.00  0.00    +0.000 A 
ATOM     17  C   UNL     1      -1.837  -6.168   5.303  0.00  0.00    +0.000 A 
ATOM     18  C   UNL     1      -1.009  -6.532   4.182  0.00  0.00    +0.000 A 
ATOM     19  C   UNL     1      -4.189  -2.681   7.986  0.00  0.00    +0.000 A 
ENDBRANCH   3  14
BRANCH   5  20
ATOM     20  C   UNL     1      -1.874  -6.154   5.353  0.00  0.00    +0.000 C 
ATOM     21  C   UNL     1      -1.092  -6.498   4.294  0.00  0.00    +0.000 C 
BRANCH  21  22
ATOM     22  C   UNL     1      -0.724  -7.954   4.061  0.00  0.00    +0.000 C 
ATOM     23  O   UNL     1       0.006  -8.275   3.072  0.00  0.00    +0.000 OA
BRANCH  22  24
ATOM     24  O   UNL     1      -1.198  -8.956   4.949  0.00  0.00    +0.000 OA
BRANCH  24  25
ATOM     25  C   UNL     1      -0.855 -10.317   4.731  0.00  0.00    +0.000 C 
BRANCH  25  26
ATOM     26  C   UNL     1      -1.370 -10.758   3.371  0.00  0.00    +0.000 C 
ATOM     27  O   UNL     1      -0.556 -11.174   2.488  0.00  0.00    +0.000 OA
ATOM     28  N   UNL     1      -2.809 -10.703   3.077  0.00  0.00    +0.000 N 
ATOM     29  H   UNL     1      -3.155 -10.999   2.164  0.00  0.00    +0.000 HD
BRANCH  28  30
ATOM     30  C   UNL     1      -3.750 -10.222   4.099  0.00  0.00    +0.000 A 
ATOM     31  C   UNL     1      -3.262  -9.804   5.387  0.00  0.00    +0.000 A 
ATOM     32  C   UNL     1      -1.852  -9.858   5.675  0.00  0.00    +0.000 A 
ATOM     33  C   UNL     1      -1.364  -9.440   6.964  0.00  0.00    +0.000 A 
ATOM     34  C   UNL     1       0.046  -9.493   7.252  0.00  0.00    +0.000 A 
ATOM     35  C   UNL     1      -5.160 -10.168   3.811  0.00  0.00    +0.000 A 
BRANCH  35  36
ATOM     36  C   UNL     1      -5.676 -10.609   2.450  0.00  0.00    +0.000 C 
ATOM     37  N   UNL     1      -6.103 -10.975   1.322  0.00  0.00    +0.000 NA
ENDBRANCH  35  36
ENDBRANCH  28  30
ENDBRANCH  25  26
ENDBRANCH  24  25
ENDBRANCH  22  24
ENDBRANCH  21  22
ENDBRANCH   5  20
TORSDOF 10
