REMARK  Name = 
REMARK  9 active torsions:
REMARK  status: ('A' for Active; 'I' for Inactive)
REMARK    1  A    between atoms: C_1  and  O_2
REMARK    2  A    between atoms: O_2  and  C_3
REMARK    3  A    between atoms: C_6  and  C_7
REMARK    4  A    between atoms: N_9  and  C_10
REMARK    5  A    between atoms: C_10  and  C_11
REMARK    6  A    between atoms: C_14  and  C_15
REMARK    7  A    between atoms: C_15  and  N_16
REMARK    8  A    between atoms: C_33  and  O_34
REMARK    9  A    between atoms: O_34  and  C_35
REMARK                            x       y       z     vdW  Elec       q    Type
REMARK                         _______ _______ _______ _____ _____    ______ ____
ROOT
ATOM      1  C   UNL     1      -1.760   0.275   5.938  0.00  0.00    +0.000 C 
ATOM      2  N   UNL     1      -2.814   1.052   6.065  0.00  0.00    +0.000 NA
ATOM      3  N   UNL     1      -3.161   1.574   7.339  0.00  0.00    +0.000 N 
ATOM      4  C   UNL     1      -4.339   2.442   7.481  0.00  0.00    +0.000 C 
ATOM      5  O   UNL     1      -5.339   1.773   7.074  0.00  0.00    +0.000 OA
ATOM      6  C   UNL     1      -4.711   3.001   8.845  0.00  0.00    +0.000 C 
ATOM      7  C   UNL     1      -4.982   1.855   9.806  0.00  0.00    +0.000 C 
ATOM      8  C   UNL     1      -6.128   1.009   9.275  0.00  0.00    +0.000 C 
ATOM      9  C   UNL     1      -7.261   0.858  10.013  0.00  0.00    +0.000 C 
ATOM     10  C   UNL     1      -8.407   0.012   9.482  0.00  0.00    +0.000 C 
ATOM     11  C   UNL     1      -3.565   3.847   9.376  0.00  0.00    +0.000 C 
ENDROOT
BRANCH   1  15
ATOM     12  C   UNL     1       0.902  -1.427   1.988  0.00  0.00    +0.000 A 
ATOM     13  C   UNL     1       0.422  -1.610   3.333  0.00  0.00    +0.000 A 
ATOM     14  C   UNL     1      -0.406  -0.604   3.946  0.00  0.00    +0.000 A 
ATOM     15  C   UNL     1      -0.886  -0.787   5.291  0.00  0.00    +0.000 A 
ATOM     16  C   UNL     1      -0.538  -1.977   6.024  0.00  0.00    +0.000 A 
ATOM     17  C   UNL     1       1.730  -2.433   1.375  0.00  0.00    +0.000 A 
BRANCH  12  19
ATOM     18  C   UNL     1       1.033  -0.072  -0.061  0.00  0.00    +0.000 C 
ATOM     19  O   UNL     1       0.559  -0.253   1.265  0.00  0.00    +0.000 OA
ENDBRANCH  12  19
BRANCH  17  20
ATOM     20  O   UNL     1       2.204  -2.252   0.049  0.00  0.00    +0.000 OA
ATOM     21  C   UNL     1       3.020  -3.245  -0.556  0.00  0.00    +0.000 C 
ENDBRANCH  17  20
ENDBRANCH   1  15
BRANCH   3  22
ATOM     22  C   UNL     1      -2.343   1.246   8.516  0.00  0.00    +0.000 C 
BRANCH  22  23
ATOM     23  C   UNL     1      -0.920   1.733   8.296  0.00  0.00    +0.000 A 
ATOM     24  C   UNL     1      -0.151   1.231   7.187  0.00  0.00    +0.000 A 
ATOM     25  C   UNL     1      -0.730   0.267   6.286  0.00  0.00    +0.000 A 
ATOM     26  C   UNL     1       0.039  -0.235   5.177  0.00  0.00    +0.000 A 
ATOM     27  C   UNL     1       1.387   0.226   4.969  0.00  0.00    +0.000 A 
ATOM     28  C   UNL     1      -0.341   2.697   9.196  0.00  0.00    +0.000 A 
BRANCH  26  29
ATOM     29  C   UNL     1      -0.572  -1.252   4.227  0.00  0.00    +0.000 C 
BRANCH  29  30
ATOM     30  N   UNL     1      -0.592  -0.700   2.865  0.00  0.00    +0.000 NA
ATOM     31  C   UNL     1      -1.395   0.531   2.848  0.00  0.00    +0.000 C 
ATOM     32  C   UNL     1      -2.816   0.216   3.288  0.00  0.00    +0.000 C 
ATOM     33  C   UNL     1      -2.795  -0.355   4.696  0.00  0.00    +0.000 C 
ATOM     34  C   UNL     1      -2.183   0.662   5.647  0.00  0.00    +0.000 C 
ATOM     35  C   UNL     1      -1.183  -1.683   1.946  0.00  0.00    +0.000 C 
ENDBRANCH  29  30
ENDBRANCH  26  29
ENDBRANCH  22  23
ENDBRANCH   3  22
TORSDOF 7
