REMARK  Name = 
REMARK  5 active torsions:
REMARK  status: ('A' for Active; 'I' for Inactive)
REMARK    1  A    between atoms: C_1  and  O_2
REMARK    2  A    between atoms: O_2  and  C_3
REMARK    3  A    between atoms: C_6  and  C_7
REMARK    4  A    between atoms: C_7  and  N_9
REMARK    5  A    between atoms: N_14  and  O_15
REMARK                            x       y       z     vdW  Elec       q    Type
REMARK                         _______ _______ _______ _____ _____    ______ ____
ROOT
ATOM      1  C   UNL     1      -1.720   2.738   5.272  0.00  0.00    +0.000 C 
ATOM      2  O   UNL     1      -2.143   3.074   6.423  0.00  0.00    +0.000 OA
ENDROOT
BRANCH   1   6
ATOM      3  C   UNL     1       0.942  -0.425   2.358  0.00  0.00    +0.000 A 
ATOM      4  C   UNL     1       0.462  -0.045   3.661  0.00  0.00    +0.000 A 
ATOM      5  C   UNL     1      -0.366   1.124   3.811  0.00  0.00    +0.000 A 
ATOM      6  C   UNL     1      -0.846   1.504   5.114  0.00  0.00    +0.000 A 
ATOM      7  C   UNL     1      -0.498   0.716   6.268  0.00  0.00    +0.000 A 
ATOM      8  C   UNL     1      -0.978   1.096   7.572  0.00  0.00    +0.000 A 
ATOM      9  C   UNL     1      -1.806   2.265   7.721  0.00  0.00    +0.000 A 
ATOM     10  N   UNL     1      -2.270   2.633   8.982  0.00  0.00    +0.000 NA
ATOM     11  N   UNL     1       0.303  -0.415   6.124  0.00  0.00    +0.000 N 
BRANCH   3  13
ATOM     12  C   UNL     1       1.073  -0.023  -0.065  0.00  0.00    +0.000 C 
ATOM     13  O   UNL     1       0.599   0.352   1.220  0.00  0.00    +0.000 OA
ENDBRANCH   3  13
ENDBRANCH   1   6
BRANCH   1  14
ATOM     14  N   UNL     1      -2.075   3.543   4.095  0.00  0.00    +0.000 NA
ATOM     15  C   UNL     1      -2.831   4.611   4.231  0.00  0.00    +0.000 A 
ATOM     16  C   UNL     1      -3.179   5.399   3.078  0.00  0.00    +0.000 A 
ATOM     17 CL   UNL     1      -2.586   4.929   1.467  0.00  0.00    +0.000 Cl
ATOM     18  C   UNL     1      -4.007   6.568   3.227  0.00  0.00    +0.000 A 
ATOM     19  N   UNL     1      -4.471   6.936   4.488  0.00  0.00    +0.000 N 
ATOM     20  C   UNL     1      -4.135   6.173   5.604  0.00  0.00    +0.000 A 
ATOM     21  C   UNL     1      -3.311   4.991   5.535  0.00  0.00    +0.000 A 
ATOM     22 CL   UNL     1      -2.881   4.016   6.961  0.00  0.00    +0.000 Cl
BRANCH  19  23
ATOM     23  O   UNL     1      -5.259   8.048   4.630  0.00  0.00    +0.000 OA
ATOM     24  H   UNL     1      -5.501   8.595   3.829  0.00  0.00    +0.000 HD
ENDBRANCH  19  23
ENDBRANCH   1  14
TORSDOF 4
