REMARK  Name = 
REMARK  8 active torsions:
REMARK  status: ('A' for Active; 'I' for Inactive)
REMARK    1  A    between atoms: C_1  and  O_2
REMARK    2  A    between atoms: O_2  and  C_3
REMARK    3  A    between atoms: C_6  and  C_7
REMARK    4  A    between atoms: N_9  and  C_10
REMARK    5  A    between atoms: C_10  and  N_12
REMARK    6  A    between atoms: N_12  and  N_13
REMARK    7  A    between atoms: C_14  and  C_16
REMARK    8  A    between atoms: C_20  and  C_21
REMARK                            x       y       z     vdW  Elec       q    Type
REMARK                         _______ _______ _______ _____ _____    ______ ____
ROOT
ATOM      1  C   UNL     1      -1.747  -0.328  -4.202  0.00  0.00    +0.000 C 
ATOM      2  S   UNL     1      -2.139  -1.865  -3.874  0.00  0.00    +0.000 S 
ENDROOT
BRANCH   1   5
ATOM      3  C   UNL     1      -1.882   1.703  -5.732  0.00  0.00    +0.000 C 
ATOM      4  O   UNL     1      -2.306   2.253  -6.796  0.00  0.00    +0.000 OA
ATOM      5  N   UNL     1      -2.237   0.308  -5.434  0.00  0.00    +0.000 N 
ATOM      6  H   UNL     1      -2.824  -0.218  -6.081  0.00  0.00    +0.000 HD
BRANCH   3  10
ATOM      7  C   UNL     1       0.780   1.985  -1.440  0.00  0.00    +0.000 A 
ATOM      8  C   UNL     1       0.300   2.608  -2.646  0.00  0.00    +0.000 A 
ATOM      9  C   UNL     1      -0.528   1.865  -3.560  0.00  0.00    +0.000 A 
ATOM     10  C   UNL     1      -1.008   2.488  -4.767  0.00  0.00    +0.000 A 
ATOM     11  C   UNL     1      -0.660   3.855  -5.059  0.00  0.00    +0.000 A 
ATOM     12  C   UNL     1       1.608   2.728  -0.525  0.00  0.00    +0.000 A 
BRANCH   7  14
ATOM     13  C   UNL     1       0.910   0.023   0.038  0.00  0.00    +0.000 C 
ATOM     14  O   UNL     1       0.437   0.637  -1.152  0.00  0.00    +0.000 OA
ENDBRANCH   7  14
ENDBRANCH   3  10
ENDBRANCH   1   5
BRANCH   1  15
ATOM     15  N   UNL     1      -0.902   0.431  -3.269  0.00  0.00    +0.000 N 
ATOM     16  H   UNL     1      -0.562  -0.010  -2.415  0.00  0.00    +0.000 HD
BRANCH  15  17
ATOM     17  N   UNL     1      -0.559   1.778  -3.557  0.00  0.00    +0.000 N 
ATOM     18  C   UNL     1       0.286   2.537  -2.624  0.00  0.00    +0.000 C 
ATOM     19  O   UNL     1       0.593   3.743  -2.882  0.00  0.00    +0.000 OA
ATOM     20  H   UNL     1      -0.899   2.220  -4.411  0.00  0.00    +0.000 HD
BRANCH  18  21
ATOM     21  C   UNL     1       0.793   1.879  -1.351  0.00  0.00    +0.000 A 
ATOM     22  C   UNL     1       1.621   2.623  -0.436  0.00  0.00    +0.000 A 
ATOM     23  C   UNL     1       1.969   3.990  -0.728  0.00  0.00    +0.000 A 
ATOM     24  C   UNL     1       2.797   4.733   0.186  0.00  0.00    +0.000 A 
ATOM     25  C   UNL     1       3.145   6.100  -0.106  0.00  0.00    +0.000 A 
ATOM     26  C   UNL     1       2.638   6.757  -1.379  0.00  0.00    +0.000 C 
ATOM     27  C   UNL     1       0.445   0.513  -1.059  0.00  0.00    +0.000 A 
ENDBRANCH  18  21
ENDBRANCH  15  17
ENDBRANCH   1  15
TORSDOF 6
