REMARK  Name = 
REMARK  6 active torsions:
REMARK  status: ('A' for Active; 'I' for Inactive)
REMARK    1  A    between atoms: C_1  and  O_2
REMARK    2  A    between atoms: O_2  and  C_3
REMARK    3  A    between atoms: C_8  and  O_9
REMARK    4  A    between atoms: O_9  and  C_10
REMARK    5  A    between atoms: C_11  and  C_12
REMARK    6  A    between atoms: C_21  and  C_23
REMARK                            x       y       z     vdW  Elec       q    Type
REMARK                         _______ _______ _______ _____ _____    ______ ____
ROOT
ATOM      1  C   UNL     1       0.927  -2.252   1.053  0.00  0.00    +0.000 A 
ATOM      2  C   UNL     1       0.447  -3.143   2.078  0.00  0.00    +0.000 A 
ATOM      3  C   UNL     1      -0.381  -2.637   3.142  0.00  0.00    +0.000 A 
ATOM      4  C   UNL     1      -0.729  -1.240   3.181  0.00  0.00    +0.000 A 
ATOM      5  C   UNL     1      -0.249  -0.349   2.157  0.00  0.00    +0.000 A 
ATOM      6  C   UNL     1       1.755  -2.758  -0.011  0.00  0.00    +0.000 A 
ATOM      7  C   UNL     1      -1.603  -0.706   4.305  0.00  0.00    +0.000 C 
ATOM      8  N   UNL     1      -0.941  -0.944   5.596  0.00  0.00    +0.000 N 
ATOM      9  C   UNL     1      -0.599   0.190   6.466  0.00  0.00    +0.000 C 
ATOM     10  O   UNL     1      -0.027  -0.016   7.582  0.00  0.00    +0.000 OA
ATOM     11  C   UNL     1      -0.622  -2.316   6.016  0.00  0.00    +0.000 C 
ATOM     12  C   UNL     1      -0.888  -3.578   4.223  0.00  0.00    +0.000 C 
ENDROOT
BRANCH   7  13
ATOM     13  C   UNL     1      -2.945  -1.419   4.284  0.00  0.00    +0.000 A 
ATOM     14  C   UNL     1      -3.787  -1.335   3.119  0.00  0.00    +0.000 A 
ATOM     15  C   UNL     1      -3.357  -0.577   1.973  0.00  0.00    +0.000 A 
ATOM     16 BR   UNL     1      -4.503  -0.464   0.386  0.00  0.00    +0.000 Br
ATOM     17  C   UNL     1      -2.085   0.098   1.992  0.00  0.00    +0.000 A 
ATOM     18  C   UNL     1      -1.243   0.015   3.157  0.00  0.00    +0.000 A 
ATOM     19  C   UNL     1      -3.376  -2.177   5.431  0.00  0.00    +0.000 A 
ATOM     20  F   UNL     1      -2.598  -2.254   6.507  0.00  0.00    +0.000 F 
ENDBRANCH   7  13
BRANCH   1  22
ATOM     21  C   UNL     1       1.057   0.004   0.082  0.00  0.00    +0.000 C 
ATOM     22  O   UNL     1       0.584  -0.875   1.092  0.00  0.00    +0.000 OA
ENDBRANCH   1  22
BRANCH   6  23
ATOM     23  O   UNL     1       2.228  -1.880  -1.021  0.00  0.00    +0.000 OA
ATOM     24  C   UNL     1       3.045  -2.379  -2.071  0.00  0.00    +0.000 C 
ENDBRANCH   6  23
BRANCH   9  25
ATOM     25  C   UNL     1      -0.930   1.608   6.032  0.00  0.00    +0.000 C 
ATOM     26 CL   UNL     1      -0.092   1.971   4.504  0.00  0.00    +0.000 Cl
ENDBRANCH   9  25
TORSDOF 4
