REMARK  Name = 
REMARK  4 active torsions:
REMARK  status: ('A' for Active; 'I' for Inactive)
REMARK    1  A    between atoms: C_8  and  C_9
REMARK    2  A    between atoms: C_11  and  C_12
REMARK    3  A    between atoms: C_15  and  C_16
REMARK    4  A    between atoms: C_17  and  C_18
REMARK                            x       y       z     vdW  Elec       q    Type
REMARK                         _______ _______ _______ _____ _____    ______ ____
ROOT
ATOM      1  C   UNL     1       2.219  -1.833   1.745  0.00  0.00    +0.000 A 
ATOM      2  N   UNL     1       2.916  -2.727   2.555  0.00  0.00    +0.000 NA
ATOM      3  C   UNL     1       2.219  -3.621   3.365  0.00  0.00    +0.000 A 
ATOM      4  C   UNL     1       2.939  -4.545   4.202  0.00  0.00    +0.000 A 
ATOM      5 CL   UNL     1       2.049  -5.687   5.237  0.00  0.00    +0.000 Cl
ATOM      6  N   UNL     1       0.826  -1.833   1.745  0.00  0.00    +0.000 N 
ATOM      7  H   UNL     1       0.316  -1.178   1.152  0.00  0.00    +0.000 HD
ENDROOT
BRANCH   1  15
ATOM      8  F   UNL     1       0.929   0.067   0.023  0.00  0.00    +0.000 F 
ATOM      9  C   UNL     1       2.259   0.067   0.023  0.00  0.00    +0.000 A 
ATOM     10  C   UNL     1       2.979   0.991  -0.814  0.00  0.00    +0.000 A 
ATOM     11  C   UNL     1       2.259   1.915  -1.652  0.00  0.00    +0.000 A 
ATOM     12  C   UNL     1       2.979   2.839  -2.489  0.00  0.00    +0.000 A 
ATOM     13  C   UNL     1       2.259   3.763  -3.327  0.00  0.00    +0.000 A 
ATOM     14 CL   UNL     1       0.479   3.763  -3.327  0.00  0.00    +0.000 Cl
ATOM     15  C   UNL     1       2.979  -0.858   0.861  0.00  0.00    +0.000 A 
ENDBRANCH   1  15
BRANCH   3  16
ATOM     16  C   UNL     1       0.699  -3.621   3.365  0.00  0.00    +0.000 A 
ATOM     17  C   UNL     1      -0.021  -2.696   2.527  0.00  0.00    +0.000 A 
ATOM     18  C   UNL     1       0.699  -1.772   1.690  0.00  0.00    +0.000 A 
ATOM     19  C   UNL     1      -0.021  -0.848   0.852  0.00  0.00    +0.000 A 
ATOM     20  N   UNL     1      -1.414  -0.848   0.852  0.00  0.00    +0.000 NA
ATOM     21  C   UNL     1      -0.021  -4.545   4.202  0.00  0.00    +0.000 A 
BRANCH  19  22
ATOM     22  C   UNL     1       0.739   0.127  -0.032  0.00  0.00    +0.000 C 
ATOM     23  C   UNL     1       1.391   0.964  -0.790  0.00  0.00    +0.000 C 
BRANCH  23  24
ATOM     24  C   UNL     1       2.151   1.939  -1.674  0.00  0.00    +0.000 A 
ATOM     25  C   UNL     1       1.622   2.307  -2.962  0.00  0.00    +0.000 A 
ATOM     26  C   UNL     1       0.372   1.750  -3.413  0.00  0.00    +0.000 A 
ATOM     27  C   UNL     1      -0.157   2.117  -4.701  0.00  0.00    +0.000 A 
ATOM     28  C   UNL     1      -1.406   1.560  -5.152  0.00  0.00    +0.000 A 
ATOM     29  C   UNL     1       3.400   2.497  -1.223  0.00  0.00    +0.000 A 
ENDBRANCH  23  24
ENDBRANCH  19  22
ENDBRANCH   3  16
TORSDOF 4
