REMARK  Name = 
REMARK  3 active torsions:
REMARK  status: ('A' for Active; 'I' for Inactive)
REMARK    1  A    between atoms: C_1  and  C_2
REMARK    2  A    between atoms: C_5  and  N_6
REMARK    3  A    between atoms: C_18  and  N_19
REMARK                            x       y       z     vdW  Elec       q    Type
REMARK                         _______ _______ _______ _____ _____    ______ ____
ROOT
ATOM      1  N   UNL     1       2.944  -1.626  -4.670  0.00  0.00    +0.000 N 
ATOM      2  C   UNL     1       3.409  -0.325  -4.488  0.00  0.00    +0.000 A 
ATOM      3  N   UNL     1       4.209   0.270  -5.460  0.00  0.00    +0.000 NA
ATOM      4  C   UNL     1       4.674   1.571  -5.278  0.00  0.00    +0.000 A 
ATOM      5  O   UNL     1       4.367   2.214  -4.226  0.00  0.00    +0.000 OA
ATOM      6  N   UNL     1       5.474   2.167  -6.250  0.00  0.00    +0.000 N 
ATOM      7  C   UNL     1       5.811   1.462  -7.403  0.00  0.00    +0.000 A 
ATOM      8  O   UNL     1       5.387   0.275  -7.569  0.00  0.00    +0.000 OA
ATOM      9  C   UNL     1       3.041   0.444  -3.230  0.00  0.00    +0.000 A 
ATOM     10  C   UNL     1       2.213  -0.172  -2.225  0.00  0.00    +0.000 A 
ATOM     11  C   UNL     1       1.733  -1.517  -2.413  0.00  0.00    +0.000 A 
ATOM     12  C   UNL     1       2.081  -2.246  -3.606  0.00  0.00    +0.000 A 
ATOM     13  C   UNL     1       2.909  -1.630  -4.610  0.00  0.00    +0.000 A 
ATOM     14  C   UNL     1       3.389  -0.285  -4.422  0.00  0.00    +0.000 A 
ATOM     15  C   UNL     1       3.041   0.444  -3.230  0.00  0.00    +0.000 A 
ATOM     16  C   UNL     1       3.281  -2.331  -5.823  0.00  0.00    +0.000 A 
ATOM     17  H   UNL     1       5.814   3.119  -6.117  0.00  0.00    +0.000 HD
ENDROOT
BRANCH   1  22
ATOM     18  C   UNL     1       1.082   0.006  -0.057  0.00  0.00    +0.000 C 
ATOM     19  C   UNL     1       0.575  -1.413  -0.255  0.00  0.00    +0.000 A 
ATOM     20  C   UNL     1       0.923  -2.142  -1.448  0.00  0.00    +0.000 A 
ATOM     21  C   UNL     1       1.751  -1.526  -2.452  0.00  0.00    +0.000 A 
ATOM     22  C   UNL     1       2.099  -2.255  -3.645  0.00  0.00    +0.000 A 
ATOM     23  C   UNL     1       1.619  -3.599  -3.833  0.00  0.00    +0.000 A 
ATOM     24  C   UNL     1      -0.253  -2.029   0.749  0.00  0.00    +0.000 A 
ENDBRANCH   1  22
BRANCH  13  25
ATOM     25  N   UNL     1       3.264  -2.374  -5.827  0.00  0.00    +0.000 N 
ATOM     26  O   UNL     1       3.969  -1.849  -6.683  0.00  0.00    +0.000 OA
ATOM     27  O   UNL     1       2.808  -3.653  -6.006  0.00  0.00    +0.000 OA
ENDBRANCH  13  25
TORSDOF 2
