REMARK  Name = 
REMARK  6 active torsions:
REMARK  status: ('A' for Active; 'I' for Inactive)
REMARK    1  A    between atoms: C_1  and  O_2
REMARK    2  A    between atoms: O_2  and  C_3
REMARK    3  A    between atoms: C_6  and  C_7
REMARK    4  A    between atoms: N_8  and  N_9
REMARK    5  A    between atoms: C_10  and  C_12
REMARK    6  A    between atoms: C_16  and  C_17
REMARK                            x       y       z     vdW  Elec       q    Type
REMARK                         _______ _______ _______ _____ _____    ______ ____
ROOT
ATOM      1  C   UNL     1      -1.885   5.964   0.987  0.00  0.00    +0.000 C 
ATOM      2  N   UNL     1      -2.324   7.125   1.422  0.00  0.00    +0.000 NA
ENDROOT
BRANCH   1   6
ATOM      3  C   UNL     1       0.777   1.735   1.774  0.00  0.00    +0.000 A 
ATOM      4  C   UNL     1       0.297   3.007   2.250  0.00  0.00    +0.000 A 
ATOM      5  C   UNL     1      -0.531   3.827   1.404  0.00  0.00    +0.000 A 
ATOM      6  C   UNL     1      -1.012   5.098   1.880  0.00  0.00    +0.000 A 
ATOM      7  C   UNL     1      -0.664   5.550   3.203  0.00  0.00    +0.000 A 
ATOM      8  C   UNL     1       1.605   0.915   2.620  0.00  0.00    +0.000 A 
BRANCH   3  10
ATOM      9  C   UNL     1       0.907   0.036  -0.000  0.00  0.00    +0.000 C 
ATOM     10  O   UNL     1       0.434   1.290   0.470  0.00  0.00    +0.000 OA
ENDBRANCH   3  10
ENDBRANCH   1   6
BRANCH   2  11
ATOM     11  N   UNL     1      -3.140   7.934   0.588  0.00  0.00    +0.000 N 
ATOM     12  C   UNL     1      -3.495   7.473  -0.762  0.00  0.00    +0.000 C 
ATOM     13  O   UNL     1      -4.226   8.197  -1.509  0.00  0.00    +0.000 OA
ATOM     14  H   UNL     1      -3.480   8.835   0.925  0.00  0.00    +0.000 HD
BRANCH  12  15
ATOM     15  C   UNL     1      -2.989   6.131  -1.265  0.00  0.00    +0.000 A 
ATOM     16  N   UNL     1      -3.325   5.695  -2.544  0.00  0.00    +0.000 NA
ATOM     17  O   UNL     1      -2.893   4.549  -2.973  0.00  0.00    +0.000 OA
ATOM     18  N   UNL     1      -3.206   4.142  -4.165  0.00  0.00    +0.000 NA
ATOM     19  C   UNL     1      -2.161   5.311  -0.419  0.00  0.00    +0.000 A 
ATOM     20  C   UNL     1      -1.794   5.788   0.977  0.00  0.00    +0.000 C 
ENDBRANCH  12  15
ENDBRANCH   2  11
TORSDOF 4
