REMARK  Name = 
REMARK  8 active torsions:
REMARK  status: ('A' for Active; 'I' for Inactive)
REMARK    1  A    between atoms: C_1  and  C_2
REMARK    2  A    between atoms: C_2  and  C_3
REMARK    3  A    between atoms: C_2  and  C_4
REMARK    4  A    between atoms: C_4  and  C_5
REMARK    5  A    between atoms: C_5  and  N_6
REMARK    6  A    between atoms: N_9  and  C_10
REMARK    7  A    between atoms: N_22  and  S_23
REMARK    8  A    between atoms: S_23  and  C_26
REMARK                            x       y       z     vdW  Elec       q    Type
REMARK                         _______ _______ _______ _____ _____    ______ ____
ROOT
ATOM      1  C   UNL     1       3.026  -3.535   0.742  0.00  0.00    +0.000 C 
ATOM      2  C   UNL     1       4.364  -3.779   0.791  0.00  0.00    +0.000 C 
ATOM      3  O   UNL     1       5.286  -2.721   0.578  0.00  0.00    +0.000 OA
ATOM      4  C   UNL     1       4.870  -5.184   1.073  0.00  0.00    +0.000 A 
ATOM      5  C   UNL     1       6.286  -5.442   1.125  0.00  0.00    +0.000 A 
ATOM      6  C   UNL     1       7.222  -4.369   0.909  0.00  0.00    +0.000 A 
ATOM      7  C   UNL     1       8.638  -4.627   0.961  0.00  0.00    +0.000 A 
ATOM      8  C   UNL     1       9.574  -3.554   0.745  0.00  0.00    +0.000 A 
ATOM      9  C   UNL     1       3.934  -6.257   1.289  0.00  0.00    +0.000 A 
ATOM     10  C   UNL     1       2.440  -5.985   1.234  0.00  0.00    +0.000 C 
ATOM     11  O   UNL     1       1.614  -6.932   1.425  0.00  0.00    +0.000 OA
ATOM     12  C   UNL     1       2.038  -4.668   0.969  0.00  0.00    +0.000 C 
ATOM     13  N   UNL     1       0.745  -4.432   0.922  0.00  0.00    +0.000 NA
ENDROOT
BRANCH   1  17
ATOM     14  N   UNL     1      -1.138  -2.751   0.584  0.00  0.00    +0.000 N 
ATOM     15  C   UNL     1       0.231  -3.000   0.634  0.00  0.00    +0.000 A 
ATOM     16  C   UNL     1       1.167  -1.927   0.418  0.00  0.00    +0.000 A 
ATOM     17  N   UNL     1       2.536  -2.177   0.469  0.00  0.00    +0.000 N 
ATOM     18  C   UNL     1      -2.044  -3.789   0.793  0.00  0.00    +0.000 A 
BRANCH  14  19
ATOM     19  C   UNL     1      -1.628  -1.392   0.311  0.00  0.00    +0.000 C 
BRANCH  19  20
ATOM     20  C   UNL     1      -1.122  -0.445   1.386  0.00  0.00    +0.000 C 
BRANCH  20  22
ATOM     21  C   UNL     1       0.905   0.013   0.028  0.00  0.00    +0.000 C 
ATOM     22  C   UNL     1       0.398  -0.445   1.386  0.00  0.00    +0.000 C 
ATOM     23  C   UNL     1       0.905   0.502   2.462  0.00  0.00    +0.000 C 
ENDBRANCH  20  22
ENDBRANCH  19  20
ENDBRANCH  14  19
ENDBRANCH   1  17
BRANCH  13  24
ATOM     24  S   UNL     1      -0.399  -5.744   1.186  0.00  0.00    +0.000 S 
ATOM     25  O   UNL     1      -0.182  -6.830   0.130  0.00  0.00    +0.000 OA
ATOM     26  O   UNL     1      -0.182  -6.337   2.580  0.00  0.00    +0.000 OA
BRANCH  24  27
ATOM     27  C   UNL     1      -2.088  -5.106   1.058  0.00  0.00    +0.000 A 
ATOM     28  C   UNL     1      -3.208  -5.994   1.236  0.00  0.00    +0.000 A 
ATOM     29  C   UNL     1      -2.984  -7.389   1.516  0.00  0.00    +0.000 A 
ATOM     30  C   UNL     1      -4.104  -8.276   1.695  0.00  0.00    +0.000 A 
ATOM     31 BR   UNL     1      -3.800 -10.174   2.077  0.00  0.00    +0.000 Br
ATOM     32  C   UNL     1      -5.448  -7.769   1.593  0.00  0.00    +0.000 A 
ATOM     33  C   UNL     1      -2.312  -3.712   0.777  0.00  0.00    +0.000 A 
ENDBRANCH  24  27
ENDBRANCH  13  24
TORSDOF 6
