REMARK  Name = 
REMARK  4 active torsions:
REMARK  status: ('A' for Active; 'I' for Inactive)
REMARK    1  A    between atoms: C_1  and  O_2
REMARK    2  A    between atoms: O_2  and  C_3
REMARK    3  A    between atoms: C_15  and  C_16
REMARK    4  A    between atoms: C_15  and  C_17
REMARK                            x       y       z     vdW  Elec       q    Type
REMARK                         _______ _______ _______ _____ _____    ______ ____
ROOT
ATOM      1  C   UNL     1       0.798  -1.768  -1.603  0.00  0.00    +0.000 A 
ATOM      2  C   UNL     1       0.317  -3.071  -1.987  0.00  0.00    +0.000 A 
ATOM      3  C   UNL     1      -0.511  -3.828  -1.084  0.00  0.00    +0.000 A 
ATOM      4  C   UNL     1      -0.991  -5.130  -1.468  0.00  0.00    +0.000 A 
ATOM      5  C   UNL     1      -0.643  -5.676  -2.755  0.00  0.00    +0.000 A 
ATOM      6  C   UNL     1       1.626  -1.011  -2.506  0.00  0.00    +0.000 A 
ATOM      7  C   UNL     1      -1.149  -7.050  -3.160  0.00  0.00    +0.000 A 
ATOM      8  C   UNL     1      -0.801  -7.596  -4.446  0.00  0.00    +0.000 A 
ATOM      9  S   UNL     1       0.185  -6.694  -5.522  0.00  0.00    +0.000 S 
ATOM     10  S   UNL     1       0.848  -4.895  -4.992  0.00  0.00    +0.000 S 
ATOM     11  C   UNL     1      -1.977  -7.807  -2.257  0.00  0.00    +0.000 A 
ATOM     12  S   UNL     1      -2.369  -7.194  -0.809  0.00  0.00    +0.000 S 
ATOM     13  C   UNL     1      -1.308  -8.970  -4.852  0.00  0.00    +0.000 C 
ATOM     14  C   UNL     1      -2.828  -8.970  -4.852  0.00  0.00    +0.000 C 
ATOM     15  C   UNL     1      -0.801  -9.307  -6.244  0.00  0.00    +0.000 C 
ATOM     16  N   UNL     1      -1.836  -5.903  -0.546  0.00  0.00    +0.000 N 
ATOM     17  H   UNL     1      -2.082  -5.517   0.365  0.00  0.00    +0.000 HD
ENDROOT
BRANCH   1  19
ATOM     18  C   UNL     1       0.928   0.054   0.044  0.00  0.00    +0.000 C 
ATOM     19  O   UNL     1       0.454  -1.231  -0.335  0.00  0.00    +0.000 OA
ENDBRANCH   1  19
TORSDOF 1
