REMARK  Name = 
REMARK  7 active torsions:
REMARK  status: ('A' for Active; 'I' for Inactive)
REMARK    1  A    between atoms: N_1  and  S_2
REMARK    2  A    between atoms: S_2  and  C_5
REMARK    3  A    between atoms: C_7  and  N_8
REMARK    4  A    between atoms: C_9  and  C_11
REMARK    5  A    between atoms: C_11  and  C_12
REMARK    6  A    between atoms: C_21  and  O_22
REMARK    7  A    between atoms: O_22  and  C_23
REMARK                            x       y       z     vdW  Elec       q    Type
REMARK                         _______ _______ _______ _____ _____    ______ ____
ROOT
ATOM      1  C   UNL     1       0.996  -0.993  -2.830  0.00  0.00    +0.000 A 
ATOM      2  C   UNL     1       0.648  -1.917  -3.878  0.00  0.00    +0.000 A 
ATOM      3  C   UNL     1      -0.180  -3.058  -3.587  0.00  0.00    +0.000 A 
ATOM      4  C   UNL     1      -0.660  -3.276  -2.246  0.00  0.00    +0.000 A 
ATOM      5  C   UNL     1      -0.312  -2.352  -1.198  0.00  0.00    +0.000 A 
ATOM      6  C   UNL     1       1.824   0.149  -3.121  0.00  0.00    +0.000 A 
ENDROOT
BRANCH   3   7
ATOM      7  N   UNL     1      -0.535  -4.001  -4.657  0.00  0.00    +0.000 N 
ATOM      8  C   UNL     1      -1.380  -5.167  -4.359  0.00  0.00    +0.000 C 
ATOM      9  O   UNL     1      -1.687  -5.982  -5.285  0.00  0.00    +0.000 OA
ATOM     10  H   UNL     1      -0.195  -3.847  -5.606  0.00  0.00    +0.000 HD
BRANCH   8  11
ATOM     11  C   UNL     1      -1.887  -5.397  -2.945  0.00  0.00    +0.000 C 
BRANCH  11  12
ATOM     12  C   UNL     1      -0.705  -5.550  -2.002  0.00  0.00    +0.000 A 
ATOM     13  C   UNL     1       0.247  -6.611  -2.207  0.00  0.00    +0.000 A 
ATOM     14  C   UNL     1       0.079  -7.527  -3.306  0.00  0.00    +0.000 A 
ATOM     15  C   UNL     1       1.031  -8.588  -3.511  0.00  0.00    +0.000 A 
ATOM     16  C   UNL     1       0.863  -9.503  -4.610  0.00  0.00    +0.000 A 
ATOM     17  C   UNL     1      -0.537  -4.634  -0.903  0.00  0.00    +0.000 A 
ATOM     18 CL   UNL     1      -1.713  -3.323  -0.649  0.00  0.00    +0.000 Cl
ENDBRANCH  11  12
ENDBRANCH   8  11
ENDBRANCH   3   7
BRANCH   1  19
ATOM     19  S   UNL     1       0.392  -1.266  -1.145  0.00  0.00    +0.000 S 
ATOM     20  O   UNL     1       0.903  -2.616  -0.634  0.00  0.00    +0.000 OA
ATOM     21  O   UNL     1      -1.138  -1.266  -1.145  0.00  0.00    +0.000 OA
BRANCH  19  22
ATOM     22  N   UNL     1       0.979   0.019  -0.096  0.00  0.00    +0.000 NA
ATOM     23  H   UNL     1       0.639  -0.135   0.853  0.00  0.00    +0.000 HD
ATOM     24  H   UNL     1       1.999   0.019  -0.096  0.00  0.00    +0.000 HD
ENDBRANCH  19  22
ENDBRANCH   1  19
BRANCH   6  25
ATOM     25  O   UNL     1       2.167   1.060  -2.088  0.00  0.00    +0.000 OA
BRANCH  25  26
ATOM     26  C   UNL     1       2.983   2.186  -2.375  0.00  0.00    +0.000 A 
ATOM     27  C   UNL     1       3.331   3.110  -1.327  0.00  0.00    +0.000 A 
ATOM     28  N   UNL     1       2.867   2.899  -0.030  0.00  0.00    +0.000 NA
ATOM     29  C   UNL     1       2.066   1.795   0.252  0.00  0.00    +0.000 A 
ATOM     30  C   UNL     1       1.718   0.871  -0.797  0.00  0.00    +0.000 A 
ATOM     31 CL   UNL     1       2.312   1.140  -2.453  0.00  0.00    +0.000 Cl
ATOM     32  C   UNL     1       3.463   2.403  -3.715  0.00  0.00    +0.000 A 
ENDBRANCH  25  26
ENDBRANCH   6  25
TORSDOF 7
