REMARK  Name = 
REMARK  3 active torsions:
REMARK  status: ('A' for Active; 'I' for Inactive)
REMARK    1  A    between atoms: C_1  and  O_2
REMARK    2  A    between atoms: O_2  and  C_3
REMARK    3  A    between atoms: C_7  and  C_8
REMARK                            x       y       z     vdW  Elec       q    Type
REMARK                         _______ _______ _______ _____ _____    ______ ____
ROOT
ATOM      1  C   UNL     1      -2.201  -5.337  -0.591  0.00  0.00    +0.000 A 
ATOM      2  C   UNL     1      -3.029  -6.293   0.098  0.00  0.00    +0.000 A 
ATOM      3  C   UNL     1      -3.509  -7.461  -0.595  0.00  0.00    +0.000 A 
ATOM      4  O   UNL     1      -4.240  -8.305   0.012  0.00  0.00    +0.000 OA
ATOM      5  C   UNL     1      -3.161  -7.672  -1.977  0.00  0.00    +0.000 A 
ATOM      6  C   UNL     1      -3.641  -8.840  -2.670  0.00  0.00    +0.000 A 
ATOM      7  C   UNL     1      -4.469  -9.796  -1.981  0.00  0.00    +0.000 A 
ATOM      8  C   UNL     1      -4.950 -10.964  -2.675  0.00  0.00    +0.000 A 
ATOM      9  O   UNL     1      -4.625 -11.161  -3.965  0.00  0.00    +0.000 OA
ATOM     10  C   UNL     1      -5.073 -12.252  -4.613  0.00  0.00    +0.000 A 
ATOM     11  C   UNL     1      -5.901 -13.208  -3.924  0.00  0.00    +0.000 A 
ATOM     12  C   UNL     1      -5.778 -11.920  -1.986  0.00  0.00    +0.000 A 
ATOM     13  C   UNL     1      -2.333  -6.716  -2.665  0.00  0.00    +0.000 A 
ATOM     14  O   UNL     1      -1.753  -4.246   0.057  0.00  0.00    +0.000 OA
ENDROOT
BRANCH   1  19
ATOM     15  C   UNL     1       0.782  -1.312  -2.040  0.00  0.00    +0.000 A 
ATOM     16  C   UNL     1       0.302  -2.479  -2.733  0.00  0.00    +0.000 A 
ATOM     17  C   UNL     1      -0.526  -3.436  -2.044  0.00  0.00    +0.000 A 
ATOM     18  C   UNL     1      -1.006  -4.603  -2.737  0.00  0.00    +0.000 A 
ATOM     19  C   UNL     1      -1.834  -5.560  -2.049  0.00  0.00    +0.000 A 
ATOM     20  C   UNL     1       1.610  -0.355  -2.728  0.00  0.00    +0.000 A 
BRANCH  15  22
ATOM     21  C   UNL     1       0.912   0.048   0.006  0.00  0.00    +0.000 C 
ATOM     22  O   UNL     1       0.439  -1.103  -0.678  0.00  0.00    +0.000 OA
ENDBRANCH  15  22
ENDBRANCH   1  19
TORSDOF 2
