REMARK  Name = 
REMARK  3 active torsions:
REMARK  status: ('A' for Active; 'I' for Inactive)
REMARK    1  A    between atoms: C_4  and  C_5
REMARK    2  A    between atoms: N_13  and  N_14
REMARK    3  A    between atoms: N_14  and  C_15
REMARK                            x       y       z     vdW  Elec       q    Type
REMARK                         _______ _______ _______ _____ _____    ______ ____
ROOT
ATOM      1  O   UNL     1       1.023   0.060  -0.077  0.00  0.00    +0.000 OA
ATOM      2  C   UNL     1       2.294   0.060  -0.077  0.00  0.00    +0.000 C 
ATOM      3  C   UNL     1       3.054  -0.968  -0.900  0.00  0.00    +0.000 C 
ATOM      4  C   UNL     1       2.373  -1.887  -1.636  0.00  0.00    +0.000 C 
ATOM      5  C   UNL     1       0.853  -1.887  -1.636  0.00  0.00    +0.000 C 
ATOM      6  O   UNL     1       0.218  -2.746  -2.324  0.00  0.00    +0.000 OA
ATOM      7  N   UNL     1       3.029   1.053   0.719  0.00  0.00    +0.000 N 
ENDROOT
BRANCH   4   8
ATOM      8  C   UNL     1       3.133  -2.915  -2.459  0.00  0.00    +0.000 A 
ATOM      9  C   UNL     1       4.574  -2.915  -2.459  0.00  0.00    +0.000 A 
ATOM     10  C   UNL     1       5.294  -1.941  -1.679  0.00  0.00    +0.000 A 
ATOM     11  C   UNL     1       6.734  -1.941  -1.679  0.00  0.00    +0.000 A 
ATOM     12  C   UNL     1       7.454  -0.968  -0.900  0.00  0.00    +0.000 A 
ATOM     13  C   UNL     1       2.413  -3.888  -3.239  0.00  0.00    +0.000 A 
ENDBRANCH   4   8
BRANCH   7  14
ATOM     14  N   UNL     1       2.319   2.013   1.488  0.00  0.00    +0.000 N 
ATOM     15  H   UNL     1       2.829   2.703   2.040  0.00  0.00    +0.000 HD
BRANCH  14  16
ATOM     16  C   UNL     1       0.849   2.013   1.488  0.00  0.00    +0.000 A 
ATOM     17  C   UNL     1       0.129   1.040   0.708  0.00  0.00    +0.000 A 
ATOM     18  C   UNL     1       0.849   0.066  -0.072  0.00  0.00    +0.000 A 
ATOM     19  C   UNL     1       0.129  -0.907  -0.851  0.00  0.00    +0.000 A 
ATOM     20  C   UNL     1       0.849  -1.881  -1.631  0.00  0.00    +0.000 A 
ATOM     21  C   UNL     1       0.129   2.987   2.267  0.00  0.00    +0.000 A 
ENDBRANCH  14  16
ENDBRANCH   7  14
TORSDOF 3
