REMARK  Name = 
REMARK  5 active torsions:
REMARK  status: ('A' for Active; 'I' for Inactive)
REMARK    1  A    between atoms: C_1  and  N_2
REMARK    2  A    between atoms: C_5  and  O_6
REMARK    3  A    between atoms: C_5  and  C_7
REMARK    4  A    between atoms: C_8  and  C_9
REMARK    5  A    between atoms: C_14  and  C_15
REMARK                            x       y       z     vdW  Elec       q    Type
REMARK                         _______ _______ _______ _____ _____    ______ ____
ROOT
ATOM      1  C   UNL     1      -0.099   1.020  -2.079  0.00  0.00    +0.000 A 
ATOM      2  C   UNL     1      -0.323   2.191  -1.271  0.00  0.00    +0.000 A 
ATOM      3  C   UNL     1      -0.200   2.112   0.161  0.00  0.00    +0.000 A 
ATOM      4  C   UNL     1      -0.424   3.283   0.969  0.00  0.00    +0.000 A 
ATOM      5  F   UNL     1      -0.310   3.210   2.292  0.00  0.00    +0.000 F 
ATOM      6  C   UNL     1      -0.772   4.533   0.344  0.00  0.00    +0.000 A 
ATOM      7  C   UNL     1      -0.222   1.098  -3.512  0.00  0.00    +0.000 A 
ENDROOT
BRANCH   6   8
ATOM      8  C   UNL     1      -1.009   5.769   1.196  0.00  0.00    +0.000 A 
ATOM      9  C   UNL     1      -1.357   7.019   0.571  0.00  0.00    +0.000 A 
ATOM     10  N   UNL     1      -1.476   7.095  -0.815  0.00  0.00    +0.000 N 
ATOM     11  C   UNL     1      -1.813   8.304  -1.419  0.00  0.00    +0.000 A 
ATOM     12  C   UNL     1      -2.038   9.475  -0.612  0.00  0.00    +0.000 A 
ATOM     13  N   UNL     1      -1.918   9.399   0.774  0.00  0.00    +0.000 NA
ATOM     14  C   UNL     1      -1.582   8.190   1.378  0.00  0.00    +0.000 A 
ATOM     15  N   UNL     1      -1.353   6.995   0.554  0.00  0.00    +0.000 N 
ATOM     16  N   UNL     1      -1.462   8.114   2.764  0.00  0.00    +0.000 NA
ATOM     17  C   UNL     1      -1.936   8.383  -2.852  0.00  0.00    +0.000 A 
ATOM     18  H   UNL     1      -1.317   6.266  -1.387  0.00  0.00    +0.000 HD
ATOM     19  H   UNL     1      -1.106   6.110   0.997  0.00  0.00    +0.000 HD
ATOM     20  H   UNL     1      -1.440   7.051  -0.461  0.00  0.00    +0.000 HD
ENDBRANCH   6   8
BRANCH   1  22
ATOM     21  C   UNL     1       0.584  -1.431  -0.853  0.00  0.00    +0.000 C 
ATOM     22  C   UNL     1       0.269  -0.300  -1.419  0.00  0.00    +0.000 C 
BRANCH  21  27
ATOM     23  C   UNL     1       0.972  -0.083   0.047  0.00  0.00    +0.000 C 
ATOM     24  N   UNL     1       0.482  -0.391   1.399  0.00  0.00    +0.000 N 
ATOM     25  C   UNL     1       0.837  -1.666   2.037  0.00  0.00    +0.000 C 
ATOM     26  C   UNL     1       0.322  -2.818   1.189  0.00  0.00    +0.000 C 
ATOM     27  C   UNL     1       0.951  -2.750  -0.193  0.00  0.00    +0.000 C 
ATOM     28  C   UNL     1      -0.363   0.578   2.112  0.00  0.00    +0.000 C 
ATOM     29  O   UNL     1      -0.670   1.681   1.560  0.00  0.00    +0.000 OA
BRANCH  27  30
ATOM     30  O   UNL     1       0.469  -3.826  -0.985  0.00  0.00    +0.000 OA
ATOM     31  H   UNL     1       0.711  -4.694  -0.551  0.00  0.00    +0.000 HD
ENDBRANCH  27  30
ENDBRANCH  21  27
ENDBRANCH   1  22
TORSDOF 4
