REMARK  Name = 
REMARK  6 active torsions:
REMARK  status: ('A' for Active; 'I' for Inactive)
REMARK    1  A    between atoms: C_1  and  O_2
REMARK    2  A    between atoms: O_2  and  C_3
REMARK    3  A    between atoms: C_5  and  C_6
REMARK    4  A    between atoms: C_21  and  O_22
REMARK    5  A    between atoms: O_22  and  C_23
REMARK    6  A    between atoms: C_23  and  C_25
REMARK                            x       y       z     vdW  Elec       q    Type
REMARK                         _______ _______ _______ _____ _____    ______ ____
ROOT
ATOM      1  C   UNL     1       0.921  -1.566   1.896  0.00  0.00    +0.000 A 
ATOM      2  C   UNL     1       0.441  -1.937   3.202  0.00  0.00    +0.000 A 
ATOM      3  C   UNL     1      -0.387  -1.027   3.951  0.00  0.00    +0.000 A 
ATOM      4  C   UNL     1      -0.735   0.255   3.393  0.00  0.00    +0.000 A 
ATOM      5  C   UNL     1      -0.255   0.626   2.087  0.00  0.00    +0.000 A 
ATOM      6 BR   UNL     1       0.872  -0.613   1.068  0.00  0.00    +0.000 Br
ATOM      7  C   UNL     1       1.749  -2.477   1.148  0.00  0.00    +0.000 A 
ENDROOT
BRANCH   3   8
ATOM      8  C   UNL     1      -0.894  -1.418   5.329  0.00  0.00    +0.000 C 
ATOM      9  C   UNL     1      -1.676  -0.558   6.036  0.00  0.00    +0.000 C 
ATOM     10  C   UNL     1      -2.043   0.794   5.447  0.00  0.00    +0.000 C 
ATOM     11  N   UNL     1      -1.604   1.133   4.254  0.00  0.00    +0.000 NA
ATOM     12  N   UNL     1      -2.888   1.723   6.211  0.00  0.00    +0.000 N 
ATOM     13  N   UNL     1      -3.231   2.987   5.661  0.00  0.00    +0.000 NA
ATOM     14  C   UNL     1      -3.987   3.818   6.344  0.00  0.00    +0.000 C 
ATOM     15  S   UNL     1      -4.591   3.352   7.986  0.00  0.00    +0.000 S 
ATOM     16  C   UNL     1      -3.378   1.345   7.544  0.00  0.00    +0.000 C 
ATOM     17  N   UNL     1      -3.060   0.174   8.054  0.00  0.00    +0.000 NA
ATOM     18  C   UNL     1      -2.182  -0.950   7.415  0.00  0.00    +0.000 C 
ATOM     19  O   UNL     1      -1.875  -2.081   7.907  0.00  0.00    +0.000 OA
ATOM     20  H   UNL     1      -1.018   0.488   3.724  0.00  0.00    +0.000 HD
ENDBRANCH   3   8
BRANCH   1  22
ATOM     21  C   UNL     1       1.051   0.063   0.058  0.00  0.00    +0.000 C 
ATOM     22  O   UNL     1       0.578  -0.303   1.346  0.00  0.00    +0.000 OA
ENDBRANCH   1  22
BRANCH   7  23
ATOM     23  O   UNL     1       2.222  -2.111  -0.140  0.00  0.00    +0.000 OA
BRANCH  23  24
ATOM     24  C   UNL     1       3.039  -3.008  -0.878  0.00  0.00    +0.000 C 
ATOM     25  O   UNL     1       3.346  -4.139  -0.385  0.00  0.00    +0.000 OA
BRANCH  24  26
ATOM     26  C   UNL     1       3.546  -2.617  -2.256  0.00  0.00    +0.000 A 
ATOM     27  C   UNL     1       4.374  -3.527  -3.004  0.00  0.00    +0.000 A 
ATOM     28  C   UNL     1       4.721  -4.809  -2.446  0.00  0.00    +0.000 A 
ATOM     29  C   UNL     1       5.549  -5.719  -3.195  0.00  0.00    +0.000 A 
ATOM     30  O   UNL     1       3.220  -1.420  -2.777  0.00  0.00    +0.000 OA
ENDBRANCH  24  26
ENDBRANCH  23  24
ENDBRANCH   7  23
TORSDOF 5
