MODEL 1
REMARK VINA RESULT:    -7.105      0.000      0.000
REMARK INTER + INTRA:          -4.212
REMARK INTER:                  -7.935
REMARK INTRA:                   3.723
REMARK UNBOUND:                 3.723
REMARK  Name = 
REMARK  3 active torsions:
REMARK  status: ('A' for Active; 'I' for Inactive)
REMARK    1  A    between atoms: C_1  and  O_2
REMARK    2  A    between atoms: O_2  and  C_3
REMARK    3  A    between atoms: C_6  and  C_7
REMARK                            x       y       z     vdW  Elec       q    Type
REMARK                         _______ _______ _______ _____ _____    ______ ____
ROOT
ATOM      1  C   UNL     1      18.055  18.556  23.654  0.00  0.00    +0.000 C 
ATOM      2  C   UNL     1      18.849  19.398  24.368  0.00  0.00    +0.000 C 
ATOM      3  C   UNL     1      18.669  20.903  24.242  0.00  0.00    +0.000 C 
ATOM      4  C   UNL     1      18.893  21.320  22.798  0.00  0.00    +0.000 C 
ATOM      5  C   UNL     1      17.889  20.612  21.902  0.00  0.00    +0.000 A 
ATOM      6  C   UNL     1      17.862  19.173  21.848  0.00  0.00    +0.000 A 
ATOM      7  C   UNL     1      18.787  18.405  22.641  0.00  0.00    +0.000 A 
ATOM      8  C   UNL     1      18.760  16.967  22.587  0.00  0.00    +0.000 A 
ATOM      9  C   UNL     1      19.684  16.198  23.380  0.00  0.00    +0.000 A 
ATOM     10  C   UNL     1      16.965  21.380  21.109  0.00  0.00    +0.000 A 
ATOM     11  C   UNL     1      19.918  18.836  25.291  0.00  0.00    +0.000 C 
ATOM     12  O   UNL     1      20.069  17.579  25.397  0.00  0.00    +0.000 OA
ENDROOT
BRANCH   1  16
ATOM     13  C   UNL     1      13.445  20.510  22.933  0.00  0.00    +0.000 A 
ATOM     14  C   UNL     1      14.710  20.080  22.394  0.00  0.00    +0.000 A 
ATOM     15  C   UNL     1      15.722  19.548  23.270  0.00  0.00    +0.000 A 
ATOM     16  C   UNL     1      16.986  19.117  22.730  0.00  0.00    +0.000 A 
ATOM     17  C   UNL     1      17.238  19.218  21.316  0.00  0.00    +0.000 A 
ATOM     18  C   UNL     1      12.433  21.043  22.057  0.00  0.00    +0.000 A 
BRANCH  13  20
ATOM     19  C   UNL     1      12.109  21.115  24.906  0.00  0.00    +0.000 C 
ATOM     20  O   UNL     1      13.197  20.410  24.327  0.00  0.00    +0.000 OA
ENDBRANCH  13  20
ENDBRANCH   1  16
TORSDOF 2
ENDMDL
MODEL 2
REMARK VINA RESULT:    -6.755     15.084     16.718
REMARK INTER + INTRA:          -3.821
REMARK INTER:                  -7.508
REMARK INTRA:                   3.687
REMARK UNBOUND:                 3.723
REMARK  Name = 
REMARK  3 active torsions:
REMARK  status: ('A' for Active; 'I' for Inactive)
REMARK    1  A    between atoms: C_1  and  O_2
REMARK    2  A    between atoms: O_2  and  C_3
REMARK    3  A    between atoms: C_6  and  C_7
REMARK                            x       y       z     vdW  Elec       q    Type
REMARK                         _______ _______ _______ _____ _____    ______ ____
ROOT
ATOM      1  C   UNL     1      12.661   4.630  29.913  0.00  0.00    +0.000 C 
ATOM      2  C   UNL     1      12.970   3.772  28.904  0.00  0.00    +0.000 C 
ATOM      3  C   UNL     1      12.035   3.630  27.714  0.00  0.00    +0.000 C 
ATOM      4  C   UNL     1      10.673   3.156  28.194  0.00  0.00    +0.000 C 
ATOM      5  C   UNL     1      10.099   4.169  29.172  0.00  0.00    +0.000 A 
ATOM      6  C   UNL     1      10.808   4.479  30.386  0.00  0.00    +0.000 A 
ATOM      7  C   UNL     1      12.060   3.829  30.676  0.00  0.00    +0.000 A 
ATOM      8  C   UNL     1      12.769   4.138  31.890  0.00  0.00    +0.000 A 
ATOM      9  C   UNL     1      14.021   3.489  32.180  0.00  0.00    +0.000 A 
ATOM     10  C   UNL     1       8.847   4.819  28.883  0.00  0.00    +0.000 A 
ATOM     11  C   UNL     1      14.251   2.956  28.965  0.00  0.00    +0.000 C 
ATOM     12  O   UNL     1      15.033   3.075  29.960  0.00  0.00    +0.000 OA
ENDROOT
BRANCH   1  16
ATOM     13  C   UNL     1      10.035   8.573  28.137  0.00  0.00    +0.000 A 
ATOM     14  C   UNL     1      10.101   7.396  28.966  0.00  0.00    +0.000 A 
ATOM     15  C   UNL     1      11.315   6.623  29.023  0.00  0.00    +0.000 A 
ATOM     16  C   UNL     1      11.380   5.446  29.852  0.00  0.00    +0.000 A 
ATOM     17  C   UNL     1      10.232   5.044  30.624  0.00  0.00    +0.000 A 
ATOM     18  C   UNL     1       8.822   9.346  28.080  0.00  0.00    +0.000 A 
BRANCH  13  20
ATOM     19  C   UNL     1      11.827  10.191  27.674  0.00  0.00    +0.000 C 
ATOM     20  O   UNL     1      11.167   8.970  27.378  0.00  0.00    +0.000 OA
ENDBRANCH  13  20
ENDBRANCH   1  16
TORSDOF 2
ENDMDL
MODEL 3
REMARK VINA RESULT:    -6.753     14.267     16.253
REMARK INTER + INTRA:          -3.820
REMARK INTER:                  -7.549
REMARK INTRA:                   3.729
REMARK UNBOUND:                 3.723
REMARK  Name = 
REMARK  3 active torsions:
REMARK  status: ('A' for Active; 'I' for Inactive)
REMARK    1  A    between atoms: C_1  and  O_2
REMARK    2  A    between atoms: O_2  and  C_3
REMARK    3  A    between atoms: C_6  and  C_7
REMARK                            x       y       z     vdW  Elec       q    Type
REMARK                         _______ _______ _______ _____ _____    ______ ____
ROOT
ATOM      1  C   UNL     1      13.429   4.292  28.582  0.00  0.00    +0.000 C 
ATOM      2  C   UNL     1      12.209   3.691  28.572  0.00  0.00    +0.000 C 
ATOM      3  C   UNL     1      11.082   4.245  29.430  0.00  0.00    +0.000 C 
ATOM      4  C   UNL     1      11.496   4.213  30.892  0.00  0.00    +0.000 C 
ATOM      5  C   UNL     1      12.744   5.060  31.084  0.00  0.00    +0.000 A 
ATOM      6  C   UNL     1      13.952   4.734  30.373  0.00  0.00    +0.000 A 
ATOM      7  C   UNL     1      13.981   3.604  29.480  0.00  0.00    +0.000 A 
ATOM      8  C   UNL     1      15.189   3.277  28.770  0.00  0.00    +0.000 A 
ATOM      9  C   UNL     1      15.217   2.148  27.877  0.00  0.00    +0.000 A 
ATOM     10  C   UNL     1      12.716   6.190  31.977  0.00  0.00    +0.000 A 
ATOM     11  C   UNL     1      11.971   2.465  27.705  0.00  0.00    +0.000 C 
ATOM     12  O   UNL     1      12.912   2.002  26.988  0.00  0.00    +0.000 OA
ENDROOT
BRANCH   1  16
ATOM     13  C   UNL     1      12.957   9.261  29.405  0.00  0.00    +0.000 A 
ATOM     14  C   UNL     1      13.424   7.969  29.838  0.00  0.00    +0.000 A 
ATOM     15  C   UNL     1      13.199   6.808  29.016  0.00  0.00    +0.000 A 
ATOM     16  C   UNL     1      13.667   5.517  29.449  0.00  0.00    +0.000 A 
ATOM     17  C   UNL     1      14.362   5.386  30.704  0.00  0.00    +0.000 A 
ATOM     18  C   UNL     1      13.182  10.421  30.227  0.00  0.00    +0.000 A 
BRANCH  13  20
ATOM     19  C   UNL     1      12.077  10.673  27.595  0.00  0.00    +0.000 C 
ATOM     20  O   UNL     1      12.273   9.389  28.167  0.00  0.00    +0.000 OA
ENDBRANCH  13  20
ENDBRANCH   1  16
TORSDOF 2
ENDMDL
MODEL 4
REMARK VINA RESULT:    -6.701     17.904     19.853
REMARK INTER + INTRA:          -3.761
REMARK INTER:                  -7.576
REMARK INTRA:                   3.815
REMARK UNBOUND:                 3.723
REMARK  Name = 
REMARK  3 active torsions:
REMARK  status: ('A' for Active; 'I' for Inactive)
REMARK    1  A    between atoms: C_1  and  O_2
REMARK    2  A    between atoms: O_2  and  C_3
REMARK    3  A    between atoms: C_6  and  C_7
REMARK                            x       y       z     vdW  Elec       q    Type
REMARK                         _______ _______ _______ _____ _____    ______ ____
ROOT
ATOM      1  C   UNL     1      12.017   0.341  24.111  0.00  0.00    +0.000 C 
ATOM      2  C   UNL     1      11.745  -0.982  24.274  0.00  0.00    +0.000 C 
ATOM      3  C   UNL     1      12.165  -1.692  25.552  0.00  0.00    +0.000 C 
ATOM      4  C   UNL     1      13.674  -1.606  25.706  0.00  0.00    +0.000 C 
ATOM      5  C   UNL     1      14.096  -0.146  25.775  0.00  0.00    +0.000 A 
ATOM      6  C   UNL     1      13.807   0.738  24.676  0.00  0.00    +0.000 A 
ATOM      7  C   UNL     1      13.120   0.242  23.512  0.00  0.00    +0.000 A 
ATOM      8  C   UNL     1      12.832   1.127  22.413  0.00  0.00    +0.000 A 
ATOM      9  C   UNL     1      12.145   0.630  21.249  0.00  0.00    +0.000 A 
ATOM     10  C   UNL     1      14.782   0.350  26.939  0.00  0.00    +0.000 A 
ATOM     11  C   UNL     1      11.020  -1.750  23.182  0.00  0.00    +0.000 C 
ATOM     12  O   UNL     1      10.669  -1.157  22.114  0.00  0.00    +0.000 OA
ENDROOT
BRANCH   1  16
ATOM     13  C   UNL     1      11.938   3.012  28.406  0.00  0.00    +0.000 A 
ATOM     14  C   UNL     1      12.684   2.425  27.322  0.00  0.00    +0.000 A 
ATOM     15  C   UNL     1      11.997   1.696  26.287  0.00  0.00    +0.000 A 
ATOM     16  C   UNL     1      12.742   1.109  25.203  0.00  0.00    +0.000 A 
ATOM     17  C   UNL     1      14.175   1.251  25.155  0.00  0.00    +0.000 A 
ATOM     18  C   UNL     1      12.625   3.740  29.441  0.00  0.00    +0.000 A 
BRANCH  13  20
ATOM     19  C   UNL     1       9.719   3.967  28.862  0.00  0.00    +0.000 C 
ATOM     20  O   UNL     1      10.526   2.873  28.453  0.00  0.00    +0.000 OA
ENDBRANCH  13  20
ENDBRANCH   1  16
TORSDOF 2
ENDMDL
MODEL 5
REMARK VINA RESULT:    -6.613      1.784      2.159
REMARK INTER + INTRA:          -3.662
REMARK INTER:                  -7.385
REMARK INTRA:                   3.722
REMARK UNBOUND:                 3.723
REMARK  Name = 
REMARK  3 active torsions:
REMARK  status: ('A' for Active; 'I' for Inactive)
REMARK    1  A    between atoms: C_1  and  O_2
REMARK    2  A    between atoms: O_2  and  C_3
REMARK    3  A    between atoms: C_6  and  C_7
REMARK                            x       y       z     vdW  Elec       q    Type
REMARK                         _______ _______ _______ _____ _____    ______ ____
ROOT
ATOM      1  C   UNL     1      18.384  18.169  24.557  0.00  0.00    +0.000 C 
ATOM      2  C   UNL     1      19.486  18.949  24.399  0.00  0.00    +0.000 C 
ATOM      3  C   UNL     1      19.336  20.398  23.960  0.00  0.00    +0.000 C 
ATOM      4  C   UNL     1      18.654  20.447  22.603  0.00  0.00    +0.000 C 
ATOM      5  C   UNL     1      17.280  19.801  22.702  0.00  0.00    +0.000 A 
ATOM      6  C   UNL     1      17.160  18.424  23.102  0.00  0.00    +0.000 A 
ATOM      7  C   UNL     1      18.339  17.656  23.409  0.00  0.00    +0.000 A 
ATOM      8  C   UNL     1      18.218  16.279  23.809  0.00  0.00    +0.000 A 
ATOM      9  C   UNL     1      19.398  15.511  24.116  0.00  0.00    +0.000 A 
ATOM     10  C   UNL     1      16.101  20.569  22.395  0.00  0.00    +0.000 A 
ATOM     11  C   UNL     1      20.869  18.375  24.662  0.00  0.00    +0.000 C 
ATOM     12  O   UNL     1      20.995  17.165  25.029  0.00  0.00    +0.000 OA
ENDROOT
BRANCH   1  16
ATOM     13  C   UNL     1      14.360  20.830  26.083  0.00  0.00    +0.000 A 
ATOM     14  C   UNL     1      15.026  20.059  25.064  0.00  0.00    +0.000 A 
ATOM     15  C   UNL     1      16.336  19.515  25.313  0.00  0.00    +0.000 A 
ATOM     16  C   UNL     1      17.001  18.744  24.295  0.00  0.00    +0.000 A 
ATOM     17  C   UNL     1      16.356  18.516  23.027  0.00  0.00    +0.000 A 
ATOM     18  C   UNL     1      13.051  21.374  25.834  0.00  0.00    +0.000 A 
BRANCH  13  20
ATOM     19  C   UNL     1      14.324  20.727  28.539  0.00  0.00    +0.000 C 
ATOM     20  O   UNL     1      14.997  21.053  27.332  0.00  0.00    +0.000 OA
ENDBRANCH  13  20
ENDBRANCH   1  16
TORSDOF 2
ENDMDL
MODEL 6
REMARK VINA RESULT:    -6.610     14.541     17.007
REMARK INTER + INTRA:          -3.659
REMARK INTER:                  -7.471
REMARK INTRA:                   3.812
REMARK UNBOUND:                 3.723
REMARK  Name = 
REMARK  3 active torsions:
REMARK  status: ('A' for Active; 'I' for Inactive)
REMARK    1  A    between atoms: C_1  and  O_2
REMARK    2  A    between atoms: O_2  and  C_3
REMARK    3  A    between atoms: C_6  and  C_7
REMARK                            x       y       z     vdW  Elec       q    Type
REMARK                         _______ _______ _______ _____ _____    ______ ____
ROOT
ATOM      1  C   UNL     1      13.369   6.623  30.530  0.00  0.00    +0.000 C 
ATOM      2  C   UNL     1      12.888   6.382  31.779  0.00  0.00    +0.000 C 
ATOM      3  C   UNL     1      12.235   5.047  32.098  0.00  0.00    +0.000 C 
ATOM      4  C   UNL     1      11.030   4.843  31.195  0.00  0.00    +0.000 C 
ATOM      5  C   UNL     1      11.478   4.854  29.741  0.00  0.00    +0.000 A 
ATOM      6  C   UNL     1      12.128   6.018  29.198  0.00  0.00    +0.000 A 
ATOM      7  C   UNL     1      12.354   7.172  30.029  0.00  0.00    +0.000 A 
ATOM      8  C   UNL     1      13.003   8.336  29.486  0.00  0.00    +0.000 A 
ATOM      9  C   UNL     1      13.229   9.490  30.317  0.00  0.00    +0.000 A 
ATOM     10  C   UNL     1      11.253   3.700  28.910  0.00  0.00    +0.000 A 
ATOM     11  C   UNL     1      13.002   7.449  32.856  0.00  0.00    +0.000 C 
ATOM     12  O   UNL     1      13.547   8.565  32.590  0.00  0.00    +0.000 OA
ENDROOT
BRANCH   1  16
ATOM     13  C   UNL     1      15.180   2.519  28.189  0.00  0.00    +0.000 A 
ATOM     14  C   UNL     1      14.163   3.533  28.311  0.00  0.00    +0.000 A 
ATOM     15  C   UNL     1      14.271   4.543  29.332  0.00  0.00    +0.000 A 
ATOM     16  C   UNL     1      13.255   5.556  29.452  0.00  0.00    +0.000 A 
ATOM     17  C   UNL     1      12.131   5.560  28.552  0.00  0.00    +0.000 A 
ATOM     18  C   UNL     1      15.071   1.509  27.169  0.00  0.00    +0.000 A 
BRANCH  13  20
ATOM     19  C   UNL     1      17.498   1.877  28.698  0.00  0.00    +0.000 C 
ATOM     20  O   UNL     1      16.288   2.516  29.077  0.00  0.00    +0.000 OA
ENDBRANCH  13  20
ENDBRANCH   1  16
TORSDOF 2
ENDMDL
MODEL 7
REMARK VINA RESULT:    -6.581     15.000     17.050
REMARK INTER + INTRA:          -3.627
REMARK INTER:                  -7.395
REMARK INTRA:                   3.767
REMARK UNBOUND:                 3.723
REMARK  Name = 
REMARK  3 active torsions:
REMARK  status: ('A' for Active; 'I' for Inactive)
REMARK    1  A    between atoms: C_1  and  O_2
REMARK    2  A    between atoms: O_2  and  C_3
REMARK    3  A    between atoms: C_6  and  C_7
REMARK                            x       y       z     vdW  Elec       q    Type
REMARK                         _______ _______ _______ _____ _____    ______ ____
ROOT
ATOM      1  C   UNL     1      11.527   4.131  28.120  0.00  0.00    +0.000 C 
ATOM      2  C   UNL     1      10.249   4.220  28.578  0.00  0.00    +0.000 C 
ATOM      3  C   UNL     1       9.962   4.916  29.899  0.00  0.00    +0.000 C 
ATOM      4  C   UNL     1      10.704   4.204  31.018  0.00  0.00    +0.000 C 
ATOM      5  C   UNL     1      12.199   4.241  30.739  0.00  0.00    +0.000 A 
ATOM      6  C   UNL     1      12.722   3.643  29.539  0.00  0.00    +0.000 A 
ATOM      7  C   UNL     1      11.831   3.008  28.602  0.00  0.00    +0.000 A 
ATOM      8  C   UNL     1      12.354   2.410  27.402  0.00  0.00    +0.000 A 
ATOM      9  C   UNL     1      11.463   1.776  26.465  0.00  0.00    +0.000 A 
ATOM     10  C   UNL     1      13.090   4.876  31.676  0.00  0.00    +0.000 A 
ATOM     11  C   UNL     1       9.108   3.624  27.769  0.00  0.00    +0.000 C 
ATOM     12  O   UNL     1       9.347   3.043  26.666  0.00  0.00    +0.000 OA
ENDROOT
BRANCH   1  16
ATOM     13  C   UNL     1      14.126   8.145  29.769  0.00  0.00    +0.000 A 
ATOM     14  C   UNL     1      13.937   6.717  29.732  0.00  0.00    +0.000 A 
ATOM     15  C   UNL     1      12.856   6.153  28.966  0.00  0.00    +0.000 A 
ATOM     16  C   UNL     1      12.668   4.726  28.928  0.00  0.00    +0.000 A 
ATOM     17  C   UNL     1      13.562   3.862  29.656  0.00  0.00    +0.000 A 
ATOM     18  C   UNL     1      15.207   8.709  30.535  0.00  0.00    +0.000 A 
BRANCH  13  20
ATOM     19  C   UNL     1      12.825  10.226  29.621  0.00  0.00    +0.000 C 
ATOM     20  O   UNL     1      13.245   8.996  29.050  0.00  0.00    +0.000 OA
ENDBRANCH  13  20
ENDBRANCH   1  16
TORSDOF 2
ENDMDL
MODEL 8
REMARK VINA RESULT:    -6.523     17.981     20.129
REMARK INTER + INTRA:          -3.562
REMARK INTER:                  -7.385
REMARK INTRA:                   3.823
REMARK UNBOUND:                 3.723
REMARK  Name = 
REMARK  3 active torsions:
REMARK  status: ('A' for Active; 'I' for Inactive)
REMARK    1  A    between atoms: C_1  and  O_2
REMARK    2  A    between atoms: O_2  and  C_3
REMARK    3  A    between atoms: C_6  and  C_7
REMARK                            x       y       z     vdW  Elec       q    Type
REMARK                         _______ _______ _______ _____ _____    ______ ____
ROOT
ATOM      1  C   UNL     1      11.832   0.771  26.023  0.00  0.00    +0.000 C 
ATOM      2  C   UNL     1      11.363  -0.430  26.457  0.00  0.00    +0.000 C 
ATOM      3  C   UNL     1      12.334  -1.494  26.943  0.00  0.00    +0.000 C 
ATOM      4  C   UNL     1      13.291  -1.858  25.820  0.00  0.00    +0.000 C 
ATOM      5  C   UNL     1      14.066  -0.620  25.393  0.00  0.00    +0.000 A 
ATOM      6  C   UNL     1      13.363   0.532  24.892  0.00  0.00    +0.000 A 
ATOM      7  C   UNL     1      11.926   0.513  24.795  0.00  0.00    +0.000 A 
ATOM      8  C   UNL     1      11.223   1.666  24.294  0.00  0.00    +0.000 A 
ATOM      9  C   UNL     1       9.786   1.647  24.196  0.00  0.00    +0.000 A 
ATOM     10  C   UNL     1      15.502  -0.602  25.491  0.00  0.00    +0.000 A 
ATOM     11  C   UNL     1       9.869  -0.708  26.457  0.00  0.00    +0.000 C 
ATOM     12  O   UNL     1       9.057   0.181  26.051  0.00  0.00    +0.000 OA
ENDROOT
BRANCH   1  16
ATOM     13  C   UNL     1      16.063   2.085  28.464  0.00  0.00    +0.000 A 
ATOM     14  C   UNL     1      15.402   1.699  27.244  0.00  0.00    +0.000 A 
ATOM     15  C   UNL     1      13.986   1.435  27.244  0.00  0.00    +0.000 A 
ATOM     16  C   UNL     1      13.326   1.050  26.023  0.00  0.00    +0.000 A 
ATOM     17  C   UNL     1      14.081   0.929  24.803  0.00  0.00    +0.000 A 
ATOM     18  C   UNL     1      17.479   2.348  28.464  0.00  0.00    +0.000 A 
BRANCH  13  20
ATOM     19  C   UNL     1      14.671   3.428  29.982  0.00  0.00    +0.000 C 
ATOM     20  O   UNL     1      15.319   2.204  29.667  0.00  0.00    +0.000 OA
ENDBRANCH  13  20
ENDBRANCH   1  16
TORSDOF 2
ENDMDL
MODEL 9
REMARK VINA RESULT:    -6.510     18.866     21.156
REMARK INTER + INTRA:          -3.547
REMARK INTER:                  -7.405
REMARK INTRA:                   3.858
REMARK UNBOUND:                 3.723
REMARK  Name = 
REMARK  3 active torsions:
REMARK  status: ('A' for Active; 'I' for Inactive)
REMARK    1  A    between atoms: C_1  and  O_2
REMARK    2  A    between atoms: O_2  and  C_3
REMARK    3  A    between atoms: C_6  and  C_7
REMARK                            x       y       z     vdW  Elec       q    Type
REMARK                         _______ _______ _______ _____ _____    ______ ____
ROOT
ATOM      1  C   UNL     1      13.163   0.294  26.572  0.00  0.00    +0.000 C 
ATOM      2  C   UNL     1      12.378   1.381  26.345  0.00  0.00    +0.000 C 
ATOM      3  C   UNL     1      11.343   1.352  25.231  0.00  0.00    +0.000 C 
ATOM      4  C   UNL     1      12.039   1.117  23.900  0.00  0.00    +0.000 C 
ATOM      5  C   UNL     1      12.779  -0.212  23.941  0.00  0.00    +0.000 A 
ATOM      6  C   UNL     1      13.813  -0.429  24.918  0.00  0.00    +0.000 A 
ATOM      7  C   UNL     1      14.149   0.610  25.857  0.00  0.00    +0.000 A 
ATOM      8  C   UNL     1      15.184   0.393  26.834  0.00  0.00    +0.000 A 
ATOM      9  C   UNL     1      15.520   1.432  27.772  0.00  0.00    +0.000 A 
ATOM     10  C   UNL     1      12.443  -1.251  23.003  0.00  0.00    +0.000 A 
ATOM     11  C   UNL     1      12.532   2.625  27.205  0.00  0.00    +0.000 C 
ATOM     12  O   UNL     1      13.396   2.649  28.136  0.00  0.00    +0.000 OA
ENDROOT
BRANCH   1  16
ATOM     13  C   UNL     1      10.527  -3.793  25.178  0.00  0.00    +0.000 A 
ATOM     14  C   UNL     1      11.695  -2.960  25.038  0.00  0.00    +0.000 A 
ATOM     15  C   UNL     1      11.841  -1.781  25.853  0.00  0.00    +0.000 A 
ATOM     16  C   UNL     1      13.008  -0.950  25.712  0.00  0.00    +0.000 A 
ATOM     17  C   UNL     1      14.030  -1.297  24.758  0.00  0.00    +0.000 A 
ATOM     18  C   UNL     1      10.381  -4.970  24.363  0.00  0.00    +0.000 A 
BRANCH  13  20
ATOM     19  C   UNL     1       8.165  -3.785  25.862  0.00  0.00    +0.000 C 
ATOM     20  O   UNL     1       9.521  -3.450  26.119  0.00  0.00    +0.000 OA
ENDBRANCH  13  20
ENDBRANCH   1  16
TORSDOF 2
ENDMDL
MODEL 10
REMARK VINA RESULT:    -6.305     14.695     16.766
REMARK INTER + INTRA:          -3.319
REMARK INTER:                  -7.044
REMARK INTRA:                   3.725
REMARK UNBOUND:                 3.723
REMARK  Name = 
REMARK  3 active torsions:
REMARK  status: ('A' for Active; 'I' for Inactive)
REMARK    1  A    between atoms: C_1  and  O_2
REMARK    2  A    between atoms: O_2  and  C_3
REMARK    3  A    between atoms: C_6  and  C_7
REMARK                            x       y       z     vdW  Elec       q    Type
REMARK                         _______ _______ _______ _____ _____    ______ ____
ROOT
ATOM      1  C   UNL     1      12.984   6.805  29.485  0.00  0.00    +0.000 C 
ATOM      2  C   UNL     1      13.713   6.632  30.620  0.00  0.00    +0.000 C 
ATOM      3  C   UNL     1      13.514   5.386  31.468  0.00  0.00    +0.000 C 
ATOM      4  C   UNL     1      12.072   5.322  31.945  0.00  0.00    +0.000 C 
ATOM      5  C   UNL     1      11.142   5.271  30.742  0.00  0.00    +0.000 A 
ATOM      6  C   UNL     1      11.145   6.346  29.784  0.00  0.00    +0.000 A 
ATOM      7  C   UNL     1      12.028   7.470  29.963  0.00  0.00    +0.000 A 
ATOM      8  C   UNL     1      12.031   8.544  29.005  0.00  0.00    +0.000 A 
ATOM      9  C   UNL     1      12.913   9.668  29.185  0.00  0.00    +0.000 A 
ATOM     10  C   UNL     1      10.260   4.148  30.562  0.00  0.00    +0.000 A 
ATOM     11  C   UNL     1      14.726   7.684  31.041  0.00  0.00    +0.000 C 
ATOM     12  O   UNL     1      14.893   8.725  30.332  0.00  0.00    +0.000 OA
ENDROOT
BRANCH   1  16
ATOM     13  C   UNL     1      11.898   2.316  27.421  0.00  0.00    +0.000 A 
ATOM     14  C   UNL     1      11.454   3.537  28.043  0.00  0.00    +0.000 A 
ATOM     15  C   UNL     1      12.415   4.533  28.442  0.00  0.00    +0.000 A 
ATOM     16  C   UNL     1      11.970   5.754  29.064  0.00  0.00    +0.000 A 
ATOM     17  C   UNL     1      10.565   5.979  29.286  0.00  0.00    +0.000 A 
ATOM     18  C   UNL     1      10.938   1.320  27.023  0.00  0.00    +0.000 A 
BRANCH  13  20
ATOM     19  C   UNL     1      13.711   1.331  26.084  0.00  0.00    +0.000 C 
ATOM     20  O   UNL     1      13.283   2.095  27.202  0.00  0.00    +0.000 OA
ENDBRANCH  13  20
ENDBRANCH   1  16
TORSDOF 2
ENDMDL
