REMARK  Name = 
REMARK  11 active torsions:
REMARK  status: ('A' for Active; 'I' for Inactive)
REMARK    1  A    between atoms: C_1  and  O_2
REMARK    2  A    between atoms: O_2  and  C_3
REMARK    3  A    between atoms: C_6  and  C_7
REMARK    4  A    between atoms: N_9  and  C_10
REMARK    5  A    between atoms: C_10  and  N_12
REMARK    6  A    between atoms: N_12  and  N_13
REMARK    7  A    between atoms: C_14  and  C_16
REMARK    8  A    between atoms: C_17  and  C_18
REMARK    9  A    between atoms: C_26  and  C_27
REMARK   10  A    between atoms: C_29  and  O_30
REMARK   11  A    between atoms: O_30  and  C_31
REMARK                            x       y       z     vdW  Elec       q    Type
REMARK                         _______ _______ _______ _____ _____    ______ ____
ROOT
ATOM      1  N   UNL     1      -0.795   2.696  -1.978  0.00  0.00    +0.000 N 
ATOM      2  H   UNL     1      -0.455   1.765  -1.741  0.00  0.00    +0.000 HD
ENDROOT
BRANCH   1   3
ATOM      3  N   UNL     1      -0.452   3.807  -1.163  0.00  0.00    +0.000 N 
ATOM      4  C   UNL     1       0.394   3.613   0.025  0.00  0.00    +0.000 C 
ATOM      5  O   UNL     1       0.701   4.607   0.755  0.00  0.00    +0.000 OA
ATOM      6  H   UNL     1      -0.792   4.739  -1.400  0.00  0.00    +0.000 HD
BRANCH   4   7
ATOM      7  C   UNL     1       0.900   2.225   0.379  0.00  0.00    +0.000 A 
ATOM      8  C   UNL     1       1.728   2.035   1.542  0.00  0.00    +0.000 A 
ATOM      9  N   UNL     1       2.192   0.763   1.866  0.00  0.00    +0.000 NA
ATOM     10  O   UNL     1       2.939   0.592   2.915  0.00  0.00    +0.000 OA
ATOM     11  C   UNL     1       0.552   1.099  -0.449  0.00  0.00    +0.000 A 
ATOM     12  C   UNL     1      -0.322   1.299  -1.676  0.00  0.00    +0.000 C 
BRANCH   8  13
ATOM     13  C   UNL     1       2.095   3.224   2.415  0.00  0.00    +0.000 A 
ATOM     14  C   UNL     1       1.615   4.540   2.080  0.00  0.00    +0.000 A 
ATOM     15  C   UNL     1       0.787   4.729   0.916  0.00  0.00    +0.000 A 
ATOM     16  C   UNL     1       0.307   6.045   0.581  0.00  0.00    +0.000 A 
ATOM     17  C   UNL     1      -0.521   6.234  -0.582  0.00  0.00    +0.000 A 
ATOM     18  C   UNL     1       2.923   3.034   3.578  0.00  0.00    +0.000 A 
ENDBRANCH   8  13
ENDBRANCH   4   7
ENDBRANCH   1   3
BRANCH   1  19
ATOM     19  C   UNL     1      -1.640   2.890  -3.166  0.00  0.00    +0.000 C 
ATOM     20  S   UNL     1      -2.031   1.623  -4.096  0.00  0.00    +0.000 S 
BRANCH  19  23
ATOM     21  C   UNL     1      -1.775   5.382  -2.663  0.00  0.00    +0.000 C 
ATOM     22  O   UNL     1      -2.198   6.543  -2.960  0.00  0.00    +0.000 OA
ATOM     23  N   UNL     1      -2.130   4.233  -3.508  0.00  0.00    +0.000 N 
ATOM     24  H   UNL     1      -2.716   4.367  -4.332  0.00  0.00    +0.000 HD
BRANCH  21  28
ATOM     25  C   UNL     1       0.887   2.361   0.398  0.00  0.00    +0.000 A 
ATOM     26  C   UNL     1       0.407   3.677   0.063  0.00  0.00    +0.000 A 
ATOM     27  C   UNL     1      -0.421   3.867  -1.100  0.00  0.00    +0.000 A 
ATOM     28  C   UNL     1      -0.901   5.182  -1.436  0.00  0.00    +0.000 A 
ATOM     29  C   UNL     1      -0.553   6.309  -0.609  0.00  0.00    +0.000 A 
ATOM     30  C   UNL     1       1.715   2.172   1.561  0.00  0.00    +0.000 A 
BRANCH  25  32
ATOM     31  C   UNL     1       1.018  -0.046  -0.087  0.00  0.00    +0.000 C 
ATOM     32  O   UNL     1       0.544   1.251  -0.418  0.00  0.00    +0.000 OA
ENDBRANCH  25  32
BRANCH  30  33
ATOM     33  O   UNL     1       2.189   0.875   1.892  0.00  0.00    +0.000 OA
ATOM     34  C   UNL     1       3.005   0.688   3.039  0.00  0.00    +0.000 C 
ENDBRANCH  30  33
ENDBRANCH  21  28
ENDBRANCH  19  23
ENDBRANCH   1  19
TORSDOF 8
