REMARK  Name = 
REMARK  4 active torsions:
REMARK  status: ('A' for Active; 'I' for Inactive)
REMARK    1  A    between atoms: C_1  and  O_2
REMARK    2  A    between atoms: O_2  and  C_3
REMARK    3  A    between atoms: C_4  and  C_5
REMARK    4  A    between atoms: C_9  and  O_10
REMARK                            x       y       z     vdW  Elec       q    Type
REMARK                         _______ _______ _______ _____ _____    ______ ____
ROOT
ATOM      1  C   UNL     1       0.855  -2.132   1.383  0.00  0.00    +0.000 A 
ATOM      2  C   UNL     1       0.375  -2.861   2.529  0.00  0.00    +0.000 A 
ATOM      3  O   UNL     1       0.700  -4.157   2.686  0.00  0.00    +0.000 OA
ATOM      4  C   UNL     1       0.251  -4.838   3.756  0.00  0.00    +0.000 A 
ATOM      5  C   UNL     1       0.599  -6.225   3.924  0.00  0.00    +0.000 A 
ATOM      6  C   UNL     1       0.119  -6.954   5.070  0.00  0.00    +0.000 A 
ATOM      7  C   UNL     1      -0.709  -6.296   6.047  0.00  0.00    +0.000 A 
ATOM      8  C   UNL     1      -1.189  -7.025   7.193  0.00  0.00    +0.000 A 
ATOM      9  O   UNL     1      -0.864  -8.321   7.350  0.00  0.00    +0.000 OA
ATOM     10  C   UNL     1      -1.313  -9.002   8.420  0.00  0.00    +0.000 A 
ATOM     11  C   UNL     1      -2.141  -8.344   9.397  0.00  0.00    +0.000 A 
ATOM     12  C   UNL     1      -0.577  -4.180   4.733  0.00  0.00    +0.000 A 
ATOM     13  C   UNL     1       1.683  -2.790   0.406  0.00  0.00    +0.000 A 
ATOM     14  O   UNL     1       2.106  -2.147  -0.605  0.00  0.00    +0.000 OA
ENDROOT
BRANCH   2  15
ATOM     15  C   UNL     1      -0.499  -2.166   3.560  0.00  0.00    +0.000 A 
ATOM     16  C   UNL     1      -0.847  -0.779   3.392  0.00  0.00    +0.000 A 
ATOM     17  C   UNL     1      -0.367  -0.050   2.247  0.00  0.00    +0.000 A 
ATOM     18  C   UNL     1      -0.715   1.338   2.078  0.00  0.00    +0.000 A 
ATOM     19  C   UNL     1      -0.235   2.067   0.933  0.00  0.00    +0.000 A 
ATOM     20  C   UNL     1      -0.979  -2.895   4.706  0.00  0.00    +0.000 A 
BRANCH  19  21
ATOM     21  O   UNL     1       0.581   1.418  -0.031  0.00  0.00    +0.000 OA
ATOM     22  H   UNL     1       0.915   1.924  -0.826  0.00  0.00    +0.000 HD
ENDBRANCH  19  21
ENDBRANCH   2  15
BRANCH   1  24
ATOM     23  C   UNL     1       0.985  -0.045   0.088  0.00  0.00    +0.000 C 
ATOM     24  O   UNL     1       0.512  -0.764   1.217  0.00  0.00    +0.000 OA
ENDBRANCH   1  24
TORSDOF 3
