REMARK  Name = 
REMARK  7 active torsions:
REMARK  status: ('A' for Active; 'I' for Inactive)
REMARK    1  A    between atoms: C_1  and  O_2
REMARK    2  A    between atoms: O_2  and  C_3
REMARK    3  A    between atoms: C_6  and  C_7
REMARK    4  A    between atoms: N_9  and  N_10
REMARK    5  A    between atoms: N_10  and  C_11
REMARK    6  A    between atoms: C_11  and  N_13
REMARK    7  A    between atoms: C_14  and  C_16
REMARK                            x       y       z     vdW  Elec       q    Type
REMARK                         _______ _______ _______ _____ _____    ______ ____
ROOT
ATOM      1  N   UNL     1      -1.719   1.079  -4.114  0.00  0.00    +0.000 N 
ATOM      2  H   UNL     1      -1.133   1.350  -3.325  0.00  0.00    +0.000 HD
ENDROOT
BRANCH   1   5
ATOM      3  C   UNL     1      -1.837   3.478  -4.818  0.00  0.00    +0.000 C 
ATOM      4  O   UNL     1      -2.261   4.361  -5.628  0.00  0.00    +0.000 OA
ATOM      5  N   UNL     1      -2.193   2.065  -5.019  0.00  0.00    +0.000 N 
ATOM      6  H   UNL     1      -2.779   1.794  -5.808  0.00  0.00    +0.000 HD
BRANCH   3  10
ATOM      7  C   UNL     1       0.825   2.264  -0.692  0.00  0.00    +0.000 A 
ATOM      8  C   UNL     1       0.344   3.264  -1.610  0.00  0.00    +0.000 A 
ATOM      9  C   UNL     1      -0.484   2.881  -2.724  0.00  0.00    +0.000 A 
ATOM     10  C   UNL     1      -0.964   3.882  -3.642  0.00  0.00    +0.000 A 
ATOM     11  C   UNL     1      -0.616   5.266  -3.446  0.00  0.00    +0.000 A 
ATOM     12  C   UNL     1       1.653   2.647   0.422  0.00  0.00    +0.000 A 
BRANCH   7  14
ATOM     13  C   UNL     1       0.955  -0.087   0.019  0.00  0.00    +0.000 C 
ATOM     14  O   UNL     1       0.482   0.899  -0.886  0.00  0.00    +0.000 OA
ENDBRANCH   7  14
ENDBRANCH   3  10
ENDBRANCH   1   5
BRANCH   1  15
ATOM     15  C   UNL     1      -2.074  -0.333  -4.315  0.00  0.00    +0.000 C 
ATOM     16  S   UNL     1      -1.534  -1.459  -3.282  0.00  0.00    +0.000 S 
BRANCH  15  17
ATOM     17  N   UNL     1      -2.919  -0.724  -5.452  0.00  0.00    +0.000 N 
ATOM     18  C   UNL     1      -3.409   0.297  -6.389  0.00  0.00    +0.000 C 
ATOM     19  O   UNL     1      -4.140  -0.041  -7.372  0.00  0.00    +0.000 OA
ATOM     20  H   UNL     1      -3.166  -1.704  -5.591  0.00  0.00    +0.000 HD
BRANCH  18  21
ATOM     21  C   UNL     1      -3.042   1.757  -6.181  0.00  0.00    +0.000 A 
ATOM     22  C   UNL     1      -3.522   2.758  -7.099  0.00  0.00    +0.000 A 
ATOM     23  C   UNL     1      -4.350   2.375  -8.214  0.00  0.00    +0.000 A 
ATOM     24  C   UNL     1      -4.830   3.375  -9.132  0.00  0.00    +0.000 A 
ATOM     25  O   UNL     1      -2.269   2.115  -5.140  0.00  0.00    +0.000 OA
ENDBRANCH  18  21
ENDBRANCH  15  17
ENDBRANCH   1  15
TORSDOF 6
