REMARK  Name = 
REMARK  5 active torsions:
REMARK  status: ('A' for Active; 'I' for Inactive)
REMARK    1  A    between atoms: C_1  and  O_2
REMARK    2  A    between atoms: O_2  and  C_3
REMARK    3  A    between atoms: C_7  and  C_8
REMARK    4  A    between atoms: C_21  and  O_22
REMARK    5  A    between atoms: O_22  and  C_23
REMARK                            x       y       z     vdW  Elec       q    Type
REMARK                         _______ _______ _______ _____ _____    ______ ____
ROOT
ATOM      1  C   UNL     1      -2.210  -5.327   0.834  0.00  0.00    +0.000 A 
ATOM      2  O   UNL     1      -2.984  -6.021   1.689  0.00  0.00    +0.000 OA
ATOM      3  C   UNL     1      -3.309  -5.491   2.882  0.00  0.00    +0.000 A 
ATOM      4  C   UNL     1      -4.137  -6.234   3.798  0.00  0.00    +0.000 A 
ATOM      5  C   UNL     1      -4.617  -7.542   3.435  0.00  0.00    +0.000 A 
ATOM      6  C   UNL     1      -5.445  -8.284   4.351  0.00  0.00    +0.000 A 
ATOM      7  C   UNL     1      -5.925  -9.593   3.988  0.00  0.00    +0.000 A 
ATOM      8  O   UNL     1      -5.600 -10.122   2.795  0.00  0.00    +0.000 OA
ATOM      9  C   UNL     1      -6.048 -11.345   2.456  0.00  0.00    +0.000 A 
ATOM     10  C   UNL     1      -6.876 -12.087   3.371  0.00  0.00    +0.000 A 
ATOM     11  C   UNL     1      -2.829  -4.183   3.245  0.00  0.00    +0.000 A 
ATOM     12  C   UNL     1      -4.485  -5.667   5.075  0.00  0.00    +0.000 A 
ATOM     13  O   UNL     1      -5.215  -6.322   5.883  0.00  0.00    +0.000 OA
ATOM     14  C   UNL     1      -1.730  -4.019   1.196  0.00  0.00    +0.000 A 
ENDROOT
BRANCH   1  19
ATOM     15  C   UNL     1       0.773  -1.823  -1.620  0.00  0.00    +0.000 A 
ATOM     16  C   UNL     1       0.293  -3.132  -1.983  0.00  0.00    +0.000 A 
ATOM     17  C   UNL     1      -0.535  -3.874  -1.068  0.00  0.00    +0.000 A 
ATOM     18  C   UNL     1      -1.015  -5.183  -1.430  0.00  0.00    +0.000 A 
ATOM     19  C   UNL     1      -1.843  -5.925  -0.515  0.00  0.00    +0.000 A 
ATOM     20  C   UNL     1       1.601  -1.081  -2.536  0.00  0.00    +0.000 A 
BRANCH  15  22
ATOM     21  C   UNL     1       0.903   0.025  -0.003  0.00  0.00    +0.000 C 
ATOM     22  O   UNL     1       0.430  -1.265  -0.361  0.00  0.00    +0.000 OA
ENDBRANCH  15  22
ENDBRANCH   1  19
BRANCH  14  23
ATOM     23  O   UNL     1      -0.914  -3.287   0.294  0.00  0.00    +0.000 OA
ATOM     24  C   UNL     1      -0.440  -1.996   0.651  0.00  0.00    +0.000 C 
ENDBRANCH  14  23
TORSDOF 3
