REMARK  Name = 
REMARK  7 active torsions:
REMARK  status: ('A' for Active; 'I' for Inactive)
REMARK    1  A    between atoms: C_2  and  C_3
REMARK    2  A    between atoms: C_4  and  C_5
REMARK    3  A    between atoms: C_8  and  C_9
REMARK    4  A    between atoms: C_10  and  C_11
REMARK    5  A    between atoms: C_20  and  C_21
REMARK    6  A    between atoms: C_21  and  O_22
REMARK    7  A    between atoms: C_24  and  C_26
REMARK                            x       y       z     vdW  Elec       q    Type
REMARK                         _______ _______ _______ _____ _____    ______ ____
ROOT
ATOM      1  C   UNL     1       3.715  -0.056   0.051  0.00  0.00    +0.000 C 
ATOM      2  C   UNL     1       6.393  -1.488  -1.855  0.00  0.00    +0.000 C 
ATOM      3  C   UNL     1       5.051  -0.788  -1.990  0.00  0.00    +0.000 C 
ATOM      4  N   UNL     1       4.205  -1.122  -0.834  0.00  0.00    +0.000 N 
ATOM      5  C   UNL     1       3.850  -2.523  -0.564  0.00  0.00    +0.000 C 
ATOM      6  O   UNL     1       3.120  -2.812   0.435  0.00  0.00    +0.000 OA
ENDROOT
BRANCH   2   7
ATOM      7  C   UNL     1       7.267  -1.142  -3.050  0.00  0.00    +0.000 A 
ATOM      8  C   UNL     1       6.832  -1.477  -4.381  0.00  0.00    +0.000 A 
ATOM      9  C   UNL     1       5.569  -2.140  -4.580  0.00  0.00    +0.000 A 
ATOM     10  C   UNL     1       5.134  -2.476  -5.912  0.00  0.00    +0.000 A 
ATOM     11  C   UNL     1       5.962  -2.148  -7.044  0.00  0.00    +0.000 A 
ATOM     12  C   UNL     1       8.530  -0.479  -2.850  0.00  0.00    +0.000 A 
BRANCH  10  13
ATOM     13  C   UNL     1       3.801  -3.176  -6.122  0.00  0.00    +0.000 C 
ATOM     14  C   UNL     1       2.658  -3.776  -6.303  0.00  0.00    +0.000 C 
BRANCH  14  15
ATOM     15  C   UNL     1       1.325  -4.475  -6.513  0.00  0.00    +0.000 A 
ATOM     16  C   UNL     1       0.170  -4.067  -5.756  0.00  0.00    +0.000 A 
ATOM     17  C   UNL     1       0.278  -2.996  -4.799  0.00  0.00    +0.000 A 
ATOM     18  C   UNL     1      -0.877  -2.588  -4.042  0.00  0.00    +0.000 A 
ATOM     19  C   UNL     1      -0.769  -1.517  -3.085  0.00  0.00    +0.000 A 
ATOM     20  C   UNL     1       1.217  -5.547  -7.470  0.00  0.00    +0.000 A 
ATOM     21  F   UNL     1       2.284  -5.923  -8.169  0.00  0.00    +0.000 F 
ENDBRANCH  14  15
ENDBRANCH  10  13
ENDBRANCH   2   7
BRANCH   5  22
ATOM     22  C   UNL     1       4.357  -3.626  -1.480  0.00  0.00    +0.000 C 
ATOM     23  C   UNL     1       5.877  -3.625  -1.480  0.00  0.00    +0.000 C 
ATOM     24  C   UNL     1       6.384  -3.867  -0.067  0.00  0.00    +0.000 C 
ATOM     25  C   UNL     1       3.850  -3.384  -2.892  0.00  0.00    +0.000 C 
ENDBRANCH   5  22
BRANCH   1  27
ATOM     26  N   UNL     1       4.539   2.433  -0.870  0.00  0.00    +0.000 NA
ATOM     27  C   UNL     1       4.222   1.288  -0.446  0.00  0.00    +0.000 C 
ENDBRANCH   1  27
BRANCH   3  28
ATOM     28  C   UNL     1       4.366  -1.246  -3.267  0.00  0.00    +0.000 C 
BRANCH  28  29
ATOM     29  O   UNL     1       3.112  -0.593  -3.394  0.00  0.00    +0.000 OA
ATOM     30  H   UNL     1       2.537  -0.820  -2.608  0.00  0.00    +0.000 HD
ENDBRANCH  28  29
ENDBRANCH   3  28
TORSDOF 7
