REMARK  Name = 
REMARK  13 active torsions:
REMARK  status: ('A' for Active; 'I' for Inactive)
REMARK    1  A    between atoms: C_1  and  O_2
REMARK    2  A    between atoms: O_2  and  C_3
REMARK    3  A    between atoms: C_3  and  C_5
REMARK    4  A    between atoms: C_5  and  C_6
REMARK    5  A    between atoms: C_6  and  O_7
REMARK    6  A    between atoms: C_6  and  C_20
REMARK    7  A    between atoms: O_7  and  C_8
REMARK    8  A    between atoms: C_8  and  C_10
REMARK    9  A    between atoms: C_11  and  C_12
REMARK   10  A    between atoms: C_15  and  O_16
REMARK   11  A    between atoms: C_17  and  O_18
REMARK   12  A    between atoms: C_23  and  O_24
REMARK   13  A    between atoms: C_25  and  O_26
REMARK                            x       y       z     vdW  Elec       q    Type
REMARK                         _______ _______ _______ _____ _____    ______ ____
ROOT
ATOM      1  C   UNL     1       0.880   1.487  -4.194  0.00  0.00    +0.000 C 
ENDROOT
BRANCH   1   2
ATOM      2  C   UNL     1       0.373   2.036  -5.518  0.00  0.00    +0.000 A 
ATOM      3  C   UNL     1      -1.043   2.137  -5.761  0.00  0.00    +0.000 A 
ATOM      4  C   UNL     1      -1.979   1.717  -4.750  0.00  0.00    +0.000 A 
ATOM      5  C   UNL     1      -3.394   1.818  -4.993  0.00  0.00    +0.000 A 
ATOM      6  C   UNL     1      -3.875   2.338  -6.247  0.00  0.00    +0.000 A 
ATOM      7  C   UNL     1       1.309   2.455  -6.529  0.00  0.00    +0.000 A 
BRANCH   5   8
ATOM      8  O   UNL     1      -4.317   1.405  -3.996  0.00  0.00    +0.000 OA
ATOM      9  H   UNL     1      -3.984   1.043  -3.125  0.00  0.00    +0.000 HD
ENDBRANCH   5   8
BRANCH   6  10
ATOM     10  O   UNL     1      -5.271   2.438  -6.487  0.00  0.00    +0.000 OA
ATOM     11  H   UNL     1      -5.604   2.799  -7.358  0.00  0.00    +0.000 HD
ENDBRANCH   6  10
ENDBRANCH   1   2
BRANCH   1  12
ATOM     12  C   UNL     1       0.373   0.066  -4.008  0.00  0.00    +0.000 C 
BRANCH  12  13
ATOM     13  C   UNL     1      -0.632   0.542  -2.972  0.00  0.00    +0.000 C 
ATOM     14  O   UNL     1      -1.844   0.732  -3.303  0.00  0.00    +0.000 OA
BRANCH  13  16
ATOM     15  C   UNL     1      -1.155   1.220  -0.666  0.00  0.00    +0.000 C 
ATOM     16  O   UNL     1      -0.216   0.775  -1.634  0.00  0.00    +0.000 OA
ENDBRANCH  13  16
ENDBRANCH  12  13
ENDBRANCH   1  12
BRANCH   1  17
ATOM     17  O   UNL     1       0.407   2.301  -3.132  0.00  0.00    +0.000 OA
BRANCH  17  18
ATOM     18  C   UNL     1       1.229   2.503  -1.992  0.00  0.00    +0.000 C 
ATOM     19  O   UNL     1       0.822   3.235  -1.036  0.00  0.00    +0.000 OA
BRANCH  18  20
ATOM     20  C   UNL     1       2.596   1.843  -1.914  0.00  0.00    +0.000 C 
ATOM     21  C   UNL     1       3.032   1.059  -2.937  0.00  0.00    +0.000 C 
BRANCH  21  22
ATOM     22  C   UNL     1       4.399   0.399  -2.859  0.00  0.00    +0.000 A 
ATOM     23  C   UNL     1       5.232   0.603  -1.703  0.00  0.00    +0.000 A 
ATOM     24  C   UNL     1       4.771   1.433  -0.620  0.00  0.00    +0.000 A 
ATOM     25  C   UNL     1       5.605   1.638   0.536  0.00  0.00    +0.000 A 
ATOM     26  C   UNL     1       6.900   1.012   0.610  0.00  0.00    +0.000 A 
ATOM     27  C   UNL     1       4.860  -0.431  -3.942  0.00  0.00    +0.000 A 
BRANCH  25  28
ATOM     28  O   UNL     1       5.150   2.456   1.604  0.00  0.00    +0.000 OA
ATOM     29  H   UNL     1       4.250   2.890   1.553  0.00  0.00    +0.000 HD
ENDBRANCH  25  28
BRANCH  26  30
ATOM     30  O   UNL     1       7.722   1.214   1.750  0.00  0.00    +0.000 OA
ATOM     31  H   UNL     1       8.621   0.779   1.801  0.00  0.00    +0.000 HD
ENDBRANCH  26  30
ENDBRANCH  21  22
ENDBRANCH  18  20
ENDBRANCH  17  18
ENDBRANCH   1  17
TORSDOF 12
