REMARK  Name = 
REMARK  2 active torsions:
REMARK  status: ('A' for Active; 'I' for Inactive)
REMARK    1  A    between atoms: N_3  and  C_4
REMARK    2  A    between atoms: C_4  and  C_5
REMARK                            x       y       z     vdW  Elec       q    Type
REMARK                         _______ _______ _______ _____ _____    ______ ____
ROOT
ATOM      1  O   UNL     1       0.993   0.063  -0.077  0.00  0.00    +0.000 OA
ATOM      2  C   UNL     1       2.264   0.063  -0.077  0.00  0.00    +0.000 C 
ATOM      3  N   UNL     1       2.999   1.184  -0.681  0.00  0.00    +0.000 N 
ATOM      4  N   UNL     1       2.999  -1.058   0.527  0.00  0.00    +0.000 N 
ATOM      5  C   UNL     1       4.469  -1.058   0.527  0.00  0.00    +0.000 C 
ATOM      6  C   UNL     1       4.975  -1.015  -0.906  0.00  0.00    +0.000 C 
ATOM      7  N   UNL     1       4.485   0.205  -1.563  0.00  0.00    +0.000 N 
ATOM      8  C   UNL     1       5.440   1.189  -2.093  0.00  0.00    +0.000 A 
ATOM      9  C   UNL     1       6.856   0.957  -1.968  0.00  0.00    +0.000 A 
ATOM     10  C   UNL     1       7.336  -0.239  -1.324  0.00  0.00    +0.000 A 
ATOM     11  C   UNL     1       8.752  -0.470  -1.199  0.00  0.00    +0.000 A 
ATOM     12  C   UNL     1       9.232  -1.666  -0.556  0.00  0.00    +0.000 A 
ATOM     13  N   UNL     1       4.976   2.345  -2.716  0.00  0.00    +0.000 NA
ATOM     14  C   UNL     1       3.040   0.441  -1.690  0.00  0.00    +0.000 C 
ATOM     15  C   UNL     1       2.264  -2.178   1.130  0.00  0.00    +0.000 C 
ATOM     16  H   UNL     1       2.489   1.962  -1.100  0.00  0.00    +0.000 HD
ENDROOT
BRANCH   3  17
ATOM     17  C   UNL     1       4.469   1.184  -0.681  0.00  0.00    +0.000 C 
BRANCH  17  18
ATOM     18  C   UNL     1       4.975   1.226  -2.113  0.00  0.00    +0.000 A 
ATOM     19  C   UNL     1       4.627   0.173  -3.032  0.00  0.00    +0.000 A 
ATOM     20  C   UNL     1       3.799  -0.921  -2.593  0.00  0.00    +0.000 A 
ATOM     21  C   UNL     1       3.451  -1.974  -3.511  0.00  0.00    +0.000 A 
ATOM     22 CL   UNL     1       2.428  -3.326  -2.968  0.00  0.00    +0.000 Cl
ATOM     23  C   UNL     1       3.931  -1.934  -4.868  0.00  0.00    +0.000 A 
ATOM     24  C   UNL     1       5.803   2.320  -2.552  0.00  0.00    +0.000 A 
ATOM     25 CL   UNL     1       6.233   3.622  -1.417  0.00  0.00    +0.000 Cl
ENDBRANCH  17  18
ENDBRANCH   3  17
TORSDOF 2
