REMARK  Name = 
REMARK  7 active torsions:
REMARK  status: ('A' for Active; 'I' for Inactive)
REMARK    1  A    between atoms: C_1  and  O_2
REMARK    2  A    between atoms: O_2  and  C_3
REMARK    3  A    between atoms: C_11  and  C_12
REMARK    4  A    between atoms: C_15  and  O_16
REMARK    5  A    between atoms: C_19  and  O_20
REMARK    6  A    between atoms: C_23  and  C_24
REMARK    7  A    between atoms: C_23  and  C_25
REMARK                            x       y       z     vdW  Elec       q    Type
REMARK                         _______ _______ _______ _____ _____    ______ ____
ROOT
ATOM      1  C   UNL     1       0.800  -1.572  -1.880  0.00  0.00    +0.000 A 
ATOM      2  C   UNL     1       0.320  -2.825  -2.405  0.00  0.00    +0.000 A 
ATOM      3  C   UNL     1       0.668  -3.225  -3.744  0.00  0.00    +0.000 A 
ATOM      4  C   UNL     1       1.496  -2.373  -4.558  0.00  0.00    +0.000 A 
ATOM      5  C   UNL     1       1.844  -2.774  -5.897  0.00  0.00    +0.000 A 
ATOM      6  O   UNL     1       1.395  -3.944  -6.387  0.00  0.00    +0.000 OA
ATOM      7  C   UNL     1       1.720  -4.318  -7.638  0.00  0.00    +0.000 A 
ATOM      8  O   UNL     1       2.451  -3.566  -8.357  0.00  0.00    +0.000 OA
ATOM      9  C   UNL     1       1.240  -5.570  -8.163  0.00  0.00    +0.000 A 
ATOM     10  C   UNL     1       1.588  -5.971  -9.502  0.00  0.00    +0.000 A 
ATOM     11  C   UNL     1       2.672  -1.922  -6.711  0.00  0.00    +0.000 A 
ATOM     12  O   UNL     1       0.194  -4.460  -4.261  0.00  0.00    +0.000 OA
ATOM     13  C   UNL     1       0.537  -4.855  -5.582  0.00  0.00    +0.000 C 
ATOM     14  C   UNL     1       0.022  -3.821  -6.570  0.00  0.00    +0.000 C 
ATOM     15  C   UNL     1       2.049  -4.962  -5.702  0.00  0.00    +0.000 C 
ATOM     16  C   UNL     1      -0.092  -6.205  -5.886  0.00  0.00    +0.000 C 
ATOM     17  C   UNL     1      -0.554  -3.724  -1.546  0.00  0.00    +0.000 C 
ENDROOT
BRANCH   9  18
ATOM     18  C   UNL     1       0.366  -6.469  -7.304  0.00  0.00    +0.000 A 
ATOM     19  C   UNL     1       0.018  -6.069  -5.965  0.00  0.00    +0.000 A 
ATOM     20  C   UNL     1       0.498  -4.817  -5.440  0.00  0.00    +0.000 A 
ATOM     21  C   UNL     1       0.151  -4.416  -4.101  0.00  0.00    +0.000 A 
ATOM     22  C   UNL     1      -0.677  -5.268  -3.287  0.00  0.00    +0.000 A 
ATOM     23  C   UNL     1      -0.114  -7.722  -7.828  0.00  0.00    +0.000 A 
BRANCH  21  24
ATOM     24  O   UNL     1       0.624  -3.181  -3.584  0.00  0.00    +0.000 OA
ATOM     25  H   UNL     1       1.199  -2.590  -4.149  0.00  0.00    +0.000 HD
ENDBRANCH  21  24
ENDBRANCH   9  18
BRANCH   1  27
ATOM     26  C   UNL     1       0.930   0.057  -0.043  0.00  0.00    +0.000 C 
ATOM     27  O   UNL     1       0.457  -1.178  -0.560  0.00  0.00    +0.000 OA
ENDBRANCH   1  27
BRANCH  10  28
ATOM     28  O   UNL     1       1.115  -7.206 -10.019  0.00  0.00    +0.000 OA
ATOM     29  H   UNL     1       1.356  -7.484 -10.949  0.00  0.00    +0.000 HD
ENDBRANCH  10  28
TORSDOF 4
