REMARK  Name = 
REMARK  8 active torsions:
REMARK  status: ('A' for Active; 'I' for Inactive)
REMARK    1  A    between atoms: C_1  and  O_2
REMARK    2  A    between atoms: O_2  and  C_3
REMARK    3  A    between atoms: C_6  and  C_7
REMARK    4  A    between atoms: N_9  and  C_10
REMARK    5  A    between atoms: C_10  and  N_12
REMARK    6  A    between atoms: N_12  and  N_13
REMARK    7  A    between atoms: C_14  and  C_16
REMARK    8  A    between atoms: C_19  and  C_20
REMARK                            x       y       z     vdW  Elec       q    Type
REMARK                         _______ _______ _______ _____ _____    ______ ____
ROOT
ATOM      1  C   UNL     1      -1.735  -4.146  -0.809  0.00  0.00    +0.000 C 
ATOM      2  S   UNL     1      -2.126  -4.227   0.761  0.00  0.00    +0.000 S 
ENDROOT
BRANCH   1   5
ATOM      3  C   UNL     1      -1.870  -5.097  -3.167  0.00  0.00    +0.000 C 
ATOM      4  O   UNL     1      -2.293  -5.983  -3.974  0.00  0.00    +0.000 OA
ATOM      5  N   UNL     1      -2.225  -5.170  -1.742  0.00  0.00    +0.000 N 
ATOM      6  H   UNL     1      -2.811  -5.932  -1.402  0.00  0.00    +0.000 HD
BRANCH   3  10
ATOM      7  C   UNL     1       0.792  -0.879  -2.327  0.00  0.00    +0.000 A 
ATOM      8  C   UNL     1       0.312  -1.882  -3.241  0.00  0.00    +0.000 A 
ATOM      9  C   UNL     1      -0.516  -2.958  -2.760  0.00  0.00    +0.000 A 
ATOM     10  C   UNL     1      -0.996  -3.962  -3.675  0.00  0.00    +0.000 A 
ATOM     11  C   UNL     1      -0.648  -3.890  -5.071  0.00  0.00    +0.000 A 
ATOM     12  C   UNL     1       1.620   0.197  -2.808  0.00  0.00    +0.000 A 
BRANCH   7  14
ATOM     13  C   UNL     1       0.923   0.040  -0.049  0.00  0.00    +0.000 C 
ATOM     14  O   UNL     1       0.449  -0.949  -0.951  0.00  0.00    +0.000 OA
ENDBRANCH   7  14
ENDBRANCH   3  10
ENDBRANCH   1   5
BRANCH   1  15
ATOM     15  N   UNL     1      -0.890  -3.048  -1.300  0.00  0.00    +0.000 N 
ATOM     16  H   UNL     1      -0.550  -2.337  -0.652  0.00  0.00    +0.000 HD
BRANCH  15  17
ATOM     17  N   UNL     1      -0.547  -2.977  -2.676  0.00  0.00    +0.000 N 
ATOM     18  C   UNL     1       0.299  -1.879  -3.167  0.00  0.00    +0.000 C 
ATOM     19  O   UNL     1       0.606  -1.815  -4.399  0.00  0.00    +0.000 OA
ATOM     20  H   UNL     1      -0.887  -3.688  -3.324  0.00  0.00    +0.000 HD
BRANCH  18  21
ATOM     21  C   UNL     1       0.805  -0.820  -2.202  0.00  0.00    +0.000 A 
ATOM     22  C   UNL     1       1.633   0.256  -2.683  0.00  0.00    +0.000 A 
ATOM     23  C   UNL     1       1.981   0.328  -4.079  0.00  0.00    +0.000 A 
ATOM     24  C   UNL     1       2.809   1.404  -4.560  0.00  0.00    +0.000 A 
ATOM     25  C   UNL     1       3.176   1.480  -6.033  0.00  0.00    +0.000 C 
ATOM     26  C   UNL     1       3.289   2.407  -3.646  0.00  0.00    +0.000 A 
ATOM     27  C   UNL     1       0.457  -0.892  -0.806  0.00  0.00    +0.000 A 
ENDBRANCH  18  21
ENDBRANCH  15  17
ENDBRANCH   1  15
TORSDOF 6
