REMARK  Name = 
REMARK  2 active torsions:
REMARK  status: ('A' for Active; 'I' for Inactive)
REMARK    1  A    between atoms: N_3  and  C_4
REMARK    2  A    between atoms: N_11  and  C_12
REMARK                            x       y       z     vdW  Elec       q    Type
REMARK                         _______ _______ _______ _____ _____    ______ ____
ROOT
ATOM      1  O   UNL     1       1.060   0.080   0.006  0.00  0.00    +0.000 OA
ATOM      2  C   UNL     1       2.331   0.080   0.006  0.00  0.00    +0.000 C 
ATOM      3  N   UNL     1       3.066  -1.001  -0.666  0.00  0.00    +0.000 N 
ATOM      4  N   UNL     1       3.066   1.161   0.678  0.00  0.00    +0.000 N 
ATOM      5  H   UNL     1       2.556  -1.751  -1.133  0.00  0.00    +0.000 HD
ATOM      6  H   UNL     1       4.086   1.161   0.678  0.00  0.00    +0.000 HD
ENDROOT
BRANCH   4   7
ATOM      7  C   UNL     1       2.331   2.242   1.351  0.00  0.00    +0.000 A 
ATOM      8  C   UNL     1       0.891   2.242   1.351  0.00  0.00    +0.000 A 
ATOM      9  C   UNL     1       0.171   1.183   0.692  0.00  0.00    +0.000 A 
ATOM     10  C   UNL     1      -1.270   1.183   0.692  0.00  0.00    +0.000 A 
ATOM     11  C   UNL     1      -1.990   2.242   1.351  0.00  0.00    +0.000 A 
ATOM     12  C   UNL     1       3.051   3.301   2.009  0.00  0.00    +0.000 A 
ATOM     13  C   UNL     1      -3.510   2.242   1.351  0.00  0.00    +0.000 C 
ATOM     14  C   UNL     1      -4.016   2.289  -0.082  0.00  0.00    +0.000 C 
ATOM     15  C   UNL     1      -2.030   0.065  -0.003  0.00  0.00    +0.000 C 
ENDBRANCH   4   7
BRANCH   3  16
ATOM     16  C   UNL     1       4.536  -1.001  -0.666  0.00  0.00    +0.000 A 
ATOM     17  C   UNL     1       5.256   0.058  -0.007  0.00  0.00    +0.000 A 
ATOM     18  C   UNL     1       4.536   1.117   0.651  0.00  0.00    +0.000 A 
ATOM     19  C   UNL     1       5.256   2.176   1.310  0.00  0.00    +0.000 A 
ATOM     20  C   UNL     1       4.536   3.235   1.968  0.00  0.00    +0.000 A 
ATOM     21  F   UNL     1       3.206   3.235   1.968  0.00  0.00    +0.000 F 
ATOM     22  C   UNL     1       5.256  -2.060  -1.325  0.00  0.00    +0.000 A 
ENDBRANCH   3  16
TORSDOF 2
