REMARK  Name = 
REMARK  13 active torsions:
REMARK  status: ('A' for Active; 'I' for Inactive)
REMARK    1  A    between atoms: C_1  and  O_2
REMARK    2  A    between atoms: O_2  and  C_3
REMARK    3  A    between atoms: C_8  and  C_9
REMARK    4  A    between atoms: N_11  and  N_12
REMARK    5  A    between atoms: N_12  and  C_13
REMARK    6  A    between atoms: C_13  and  N_15
REMARK    7  A    between atoms: C_16  and  C_18
REMARK    8  A    between atoms: C_20  and  O_21
REMARK    9  A    between atoms: O_21  and  C_22
REMARK   10  A    between atoms: C_23  and  O_24
REMARK   11  A    between atoms: O_24  and  C_25
REMARK   12  A    between atoms: C_26  and  O_27
REMARK   13  A    between atoms: O_27  and  C_28
REMARK                            x       y       z     vdW  Elec       q    Type
REMARK                         _______ _______ _______ _____ _____    ______ ____
ROOT
ATOM      1  C   UNL     1       4.160   4.576   3.018  0.00  0.00    +0.000 C 
ATOM      2  S   UNL     1       4.551   6.145   2.916  0.00  0.00    +0.000 S 
ENDROOT
BRANCH   1   3
ATOM      3  N   UNL     1       4.650   3.768   4.144  0.00  0.00    +0.000 N 
ATOM      4  C   UNL     1       4.295   2.345   4.237  0.00  0.00    +0.000 C 
ATOM      5  O   UNL     1       4.718   1.647   5.211  0.00  0.00    +0.000 OA
ATOM      6  H   UNL     1       5.236   4.196   4.861  0.00  0.00    +0.000 HD
BRANCH   4   7
ATOM      7  C   UNL     1       3.421   1.708   3.169  0.00  0.00    +0.000 A 
ATOM      8  C   UNL     1       3.073   0.314   3.260  0.00  0.00    +0.000 A 
ATOM      9  C   UNL     1       3.553  -0.478   4.364  0.00  0.00    +0.000 A 
ATOM     10  C   UNL     1       4.381   0.126   5.376  0.00  0.00    +0.000 A 
ATOM     11  C   UNL     1       4.861  -0.666   6.479  0.00  0.00    +0.000 A 
ATOM     12  C   UNL     1       2.941   2.499   2.066  0.00  0.00    +0.000 A 
BRANCH   9  13
ATOM     13  O   UNL     1       3.210  -1.853   4.454  0.00  0.00    +0.000 OA
ATOM     14  C   UNL     1       2.394  -2.447   3.456  0.00  0.00    +0.000 C 
ENDBRANCH   9  13
BRANCH  10  15
ATOM     15  O   UNL     1       4.724   1.501   5.286  0.00  0.00    +0.000 OA
ATOM     16  C   UNL     1       4.251   2.281   4.198  0.00  0.00    +0.000 C 
ENDBRANCH  10  15
BRANCH  11  17
ATOM     17  O   UNL     1       5.677  -0.071   7.478  0.00  0.00    +0.000 OA
ATOM     18  C   UNL     1       6.151  -0.851   8.565  0.00  0.00    +0.000 C 
ENDBRANCH  11  17
ENDBRANCH   4   7
ENDBRANCH   1   3
BRANCH   1  19
ATOM     19  N   UNL     1       3.315   3.960   1.985  0.00  0.00    +0.000 N 
ATOM     20  H   UNL     1       2.975   4.521   1.203  0.00  0.00    +0.000 HD
BRANCH  19  23
ATOM     21  C   UNL     1       2.127   1.969   1.042  0.00  0.00    +0.000 C 
ATOM     22  O   UNL     1       1.820   0.739   1.122  0.00  0.00    +0.000 OA
ATOM     23  N   UNL     1       2.972   2.585   2.075  0.00  0.00    +0.000 N 
ATOM     24  H   UNL     1       3.312   2.025   2.856  0.00  0.00    +0.000 HD
BRANCH  21  30
ATOM     25  C   UNL     1       0.792   2.201  -1.135  0.00  0.00    +0.000 A 
ATOM     26  C   UNL     1       0.312   2.993  -2.239  0.00  0.00    +0.000 A 
ATOM     27  C   UNL     1      -0.516   2.389  -3.251  0.00  0.00    +0.000 A 
ATOM     28  C   UNL     1      -0.996   3.181  -4.354  0.00  0.00    +0.000 A 
ATOM     29  C   UNL     1      -1.824   2.577  -5.367  0.00  0.00    +0.000 A 
ATOM     30  C   UNL     1       1.620   2.805  -0.123  0.00  0.00    +0.000 A 
BRANCH  25  32
ATOM     31  C   UNL     1       0.922   0.046   0.043  0.00  0.00    +0.000 C 
ATOM     32  O   UNL     1       0.449   0.826  -1.045  0.00  0.00    +0.000 OA
ENDBRANCH  25  32
ENDBRANCH  21  30
ENDBRANCH  19  23
ENDBRANCH   1  19
TORSDOF 9
