REMARK  Name = 
REMARK  9 active torsions:
REMARK  status: ('A' for Active; 'I' for Inactive)
REMARK    1  A    between atoms: C_1  and  C_2
REMARK    2  A    between atoms: C_2  and  O_3
REMARK    3  A    between atoms: O_3  and  C_4
REMARK    4  A    between atoms: C_6  and  C_7
REMARK    5  A    between atoms: C_8  and  C_9
REMARK    6  A    between atoms: C_8  and  C_11
REMARK    7  A    between atoms: N_13  and  C_14
REMARK    8  A    between atoms: C_17  and  O_18
REMARK    9  A    between atoms: C_24  and  O_25
REMARK                            x       y       z     vdW  Elec       q    Type
REMARK                         _______ _______ _______ _____ _____    ______ ____
ROOT
ATOM      1  C   UNL     1       2.355  -4.368   4.677  0.00  0.00    +0.000 C 
ATOM      2  C   UNL     1       1.471  -4.908   5.559  0.00  0.00    +0.000 C 
ENDROOT
BRANCH   1   5
ATOM      3  C   UNL     1       2.304  -2.339   1.363  0.00  0.00    +0.000 A 
ATOM      4  C   UNL     1       2.784  -3.048   2.521  0.00  0.00    +0.000 A 
ATOM      5  C   UNL     1       1.848  -3.620   3.454  0.00  0.00    +0.000 A 
ATOM      6  C   UNL     1       0.432  -3.482   3.230  0.00  0.00    +0.000 A 
ATOM      7  C   UNL     1      -0.048  -2.773   2.072  0.00  0.00    +0.000 A 
ATOM      8 BR   UNL     1       1.226  -1.995   0.801  0.00  0.00    +0.000 Br
ATOM      9  C   UNL     1       3.240  -1.767   0.429  0.00  0.00    +0.000 A 
BRANCH   9  10
ATOM     10  O   UNL     1       2.766  -1.068  -0.713  0.00  0.00    +0.000 OA
ATOM     11  H   UNL     1       3.416  -0.672  -1.361  0.00  0.00    +0.000 HD
ENDBRANCH   9  10
BRANCH   3  12
ATOM     12  O   UNL     1       0.908  -2.204   1.142  0.00  0.00    +0.000 OA
BRANCH  12  14
ATOM     13  C   UNL     1       0.941  -0.072   0.037  0.00  0.00    +0.000 C 
ATOM     14  C   UNL     1       0.434  -1.505  -0.000  0.00  0.00    +0.000 C 
ENDBRANCH  12  14
ENDBRANCH   3  12
ENDBRANCH   1   5
BRANCH   2  15
ATOM     15  C   UNL     1      -0.024  -4.763   5.322  0.00  0.00    +0.000 C 
ATOM     16  O   UNL     1      -0.448  -4.137   4.300  0.00  0.00    +0.000 OA
ATOM     17  N   UNL     1      -0.979  -5.346   6.275  0.00  0.00    +0.000 N 
ATOM     18  H   UNL     1      -1.982  -5.249   6.116  0.00  0.00    +0.000 HD
BRANCH  17  19
ATOM     19  C   UNL     1      -0.489  -6.070   7.457  0.00  0.00    +0.000 A 
ATOM     20  C   UNL     1       0.927  -6.207   7.681  0.00  0.00    +0.000 A 
ATOM     21  C   UNL     1       1.863  -5.636   6.747  0.00  0.00    +0.000 A 
ATOM     22  C   UNL     1       3.279  -5.773   6.972  0.00  0.00    +0.000 A 
ATOM     23  C   UNL     1       3.759  -6.482   8.130  0.00  0.00    +0.000 A 
ATOM     24  C   UNL     1      -1.425  -6.641   8.390  0.00  0.00    +0.000 A 
BRANCH  22  25
ATOM     25  O   UNL     1       4.201  -5.210   6.051  0.00  0.00    +0.000 OA
ATOM     26  H   UNL     1       3.868  -4.717   5.247  0.00  0.00    +0.000 HD
ENDBRANCH  22  25
ENDBRANCH  17  19
ENDBRANCH   2  15
BRANCH   2  27
ATOM     27  C   UNL     1       1.977  -5.656   6.781  0.00  0.00    +0.000 C 
ATOM     28  N   UNL     1       2.398  -6.277   7.795  0.00  0.00    +0.000 NA
ENDBRANCH   2  27
TORSDOF 8
