REMARK  Name = 
REMARK  11 active torsions:
REMARK  status: ('A' for Active; 'I' for Inactive)
REMARK    1  A    between atoms: C_1  and  O_2
REMARK    2  A    between atoms: O_2  and  C_3
REMARK    3  A    between atoms: C_6  and  N_7
REMARK    4  A    between atoms: C_8  and  O_9
REMARK    5  A    between atoms: C_10  and  C_11
REMARK    6  A    between atoms: N_12  and  N_13
REMARK    7  A    between atoms: N_13  and  S_14
REMARK    8  A    between atoms: S_14  and  C_17
REMARK    9  A    between atoms: C_20  and  C_21
REMARK   10  A    between atoms: C_33  and  O_34
REMARK   11  A    between atoms: O_34  and  C_35
REMARK                            x       y       z     vdW  Elec       q    Type
REMARK                         _______ _______ _______ _____ _____    ______ ____
ROOT
ATOM      1  N   UNL     1      -1.821  -5.914  -0.292  0.00  0.00    +0.000 N 
ATOM      2  C   UNL     1      -2.158  -5.336   0.930  0.00  0.00    +0.000 A 
ATOM      3  C   UNL     1      -2.986  -6.055   1.863  0.00  0.00    +0.000 A 
ATOM      4  C   UNL     1      -3.334  -5.458   3.127  0.00  0.00    +0.000 A 
ATOM      5  C   UNL     1      -4.162  -6.177   4.060  0.00  0.00    +0.000 A 
ATOM      6  C   UNL     1      -4.642  -7.494   3.730  0.00  0.00    +0.000 A 
ATOM      7  C   UNL     1      -5.470  -8.213   4.663  0.00  0.00    +0.000 A 
ATOM      8  C   UNL     1      -5.950  -9.531   4.333  0.00  0.00    +0.000 A 
ATOM      9  C   UNL     1      -2.854  -4.140   3.457  0.00  0.00    +0.000 A 
ATOM     10  C   UNL     1      -2.286  -7.188  -0.611  0.00  0.00    +0.000 A 
ATOM     11  O   UNL     1      -1.979  -7.715  -1.726  0.00  0.00    +0.000 OA
ENDROOT
BRANCH   1  15
ATOM     12  C   UNL     1       0.812  -1.826  -1.518  0.00  0.00    +0.000 A 
ATOM     13  C   UNL     1       0.332  -3.143  -1.848  0.00  0.00    +0.000 A 
ATOM     14  C   UNL     1      -0.496  -3.863  -0.914  0.00  0.00    +0.000 A 
ATOM     15  C   UNL     1      -0.976  -5.180  -1.244  0.00  0.00    +0.000 A 
ATOM     16  C   UNL     1      -0.628  -5.777  -2.508  0.00  0.00    +0.000 A 
ATOM     17  C   UNL     1       1.640  -1.107  -2.451  0.00  0.00    +0.000 A 
BRANCH  12  19
ATOM     18  C   UNL     1       0.942   0.062   0.053  0.00  0.00    +0.000 C 
ATOM     19  O   UNL     1       0.469  -1.237  -0.272  0.00  0.00    +0.000 OA
ENDBRANCH  12  19
BRANCH  17  20
ATOM     20  O   UNL     1       2.113   0.192  -2.126  0.00  0.00    +0.000 OA
ATOM     21  C   UNL     1       2.930   0.901  -3.046  0.00  0.00    +0.000 C 
ENDBRANCH  17  20
ENDBRANCH   1  15
BRANCH   2  22
ATOM     22  O   UNL     1      -1.684  -4.037   1.255  0.00  0.00    +0.000 OA
ATOM     23  H   UNL     1      -1.110  -3.538   0.607  0.00  0.00    +0.000 HD
ENDBRANCH   2  22
BRANCH   3  24
ATOM     24  C   UNL     1      -3.492  -7.445   1.515  0.00  0.00    +0.000 C 
ATOM     25  N   UNL     1      -4.249  -8.103   2.368  0.00  0.00    +0.000 NA
BRANCH  25  26
ATOM     26  N   UNL     1      -4.722  -9.401   2.042  0.00  0.00    +0.000 N 
ATOM     27  H   UNL     1      -5.309  -9.911   2.703  0.00  0.00    +0.000 HD
BRANCH  26  28
ATOM     28  S   UNL     1      -4.297 -10.132   0.499  0.00  0.00    +0.000 S 
ATOM     29  O   UNL     1      -3.532 -11.434   0.744  0.00  0.00    +0.000 OA
ATOM     30  O   UNL     1      -5.572 -10.431  -0.293  0.00  0.00    +0.000 OA
BRANCH  28  31
ATOM     31  C   UNL     1      -3.256  -8.989  -0.443  0.00  0.00    +0.000 A 
ATOM     32  C   UNL     1      -2.776  -9.362  -1.749  0.00  0.00    +0.000 A 
ATOM     33  C   UNL     1      -3.124 -10.644  -2.305  0.00  0.00    +0.000 A 
ATOM     34  C   UNL     1      -2.644 -11.017  -3.611  0.00  0.00    +0.000 A 
ATOM     35  C   UNL     1      -3.011 -12.370  -4.198  0.00  0.00    +0.000 C 
ATOM     36  C   UNL     1      -1.816 -10.107  -4.360  0.00  0.00    +0.000 A 
ATOM     37  C   UNL     1      -2.908  -7.707   0.113  0.00  0.00    +0.000 A 
ENDBRANCH  28  31
ENDBRANCH  26  28
ENDBRANCH  25  26
ENDBRANCH   3  24
TORSDOF 8
