REMARK  Name = 
REMARK  4 active torsions:
REMARK  status: ('A' for Active; 'I' for Inactive)
REMARK    1  A    between atoms: C_1  and  O_2
REMARK    2  A    between atoms: O_2  and  C_3
REMARK    3  A    between atoms: C_6  and  C_7
REMARK    4  A    between atoms: C_13  and  C_14
REMARK                            x       y       z     vdW  Elec       q    Type
REMARK                         _______ _______ _______ _____ _____    ______ ____
ROOT
ATOM      1  C   UNL     1      -1.827   0.747   5.983  0.00  0.00    +0.000 C 
ATOM      2  N   UNL     1      -2.145   1.776   5.227  0.00  0.00    +0.000 NA
ATOM      3  N   UNL     1      -2.961   2.815   5.748  0.00  0.00    +0.000 N 
ATOM      4  C   UNL     1      -3.298   3.904   4.948  0.00  0.00    +0.000 A 
ATOM      5  N   UNL     1      -2.833   3.975   3.637  0.00  0.00    +0.000 NA
ATOM      6  N   UNL     1      -2.060   2.991   3.143  0.00  0.00    +0.000 NA
ATOM      7  C   UNL     1      -3.426   2.744   7.060  0.00  0.00    +0.000 A 
ATOM      8  S   UNL     1      -4.338   5.228   5.613  0.00  0.00    +0.000 S 
ATOM      9  C   UNL     1      -2.334   0.670   7.414  0.00  0.00    +0.000 C 
ENDROOT
BRANCH   1  13
ATOM     10  C   UNL     1       0.835  -1.271   2.185  0.00  0.00    +0.000 A 
ATOM     11  C   UNL     1       0.355  -1.344   3.541  0.00  0.00    +0.000 A 
ATOM     12  C   UNL     1      -0.473  -0.291   4.069  0.00  0.00    +0.000 A 
ATOM     13  C   UNL     1      -0.953  -0.364   5.425  0.00  0.00    +0.000 A 
ATOM     14  C   UNL     1      -0.605  -1.491   6.252  0.00  0.00    +0.000 A 
ATOM     15  C   UNL     1       1.663  -2.324   1.656  0.00  0.00    +0.000 A 
BRANCH  10  17
ATOM     16  C   UNL     1       0.965  -0.088   0.032  0.00  0.00    +0.000 C 
ATOM     17  O   UNL     1       0.492  -0.160   1.369  0.00  0.00    +0.000 OA
ENDBRANCH  10  17
ENDBRANCH   1  13
BRANCH   7  18
ATOM     18  C   UNL     1      -3.058   1.555   7.933  0.00  0.00    +0.000 A 
ATOM     19  C   UNL     1      -3.538   1.482   9.289  0.00  0.00    +0.000 A 
ATOM     20  C   UNL     1      -4.366   2.535   9.817  0.00  0.00    +0.000 A 
ATOM     21  N   UNL     1      -4.831   2.464  11.128  0.00  0.00    +0.000 NA
ATOM     22  C   UNL     1      -4.494   1.375  11.928  0.00  0.00    +0.000 A 
ATOM     23  C   UNL     1      -2.230   0.502   7.404  0.00  0.00    +0.000 A 
ENDBRANCH   7  18
TORSDOF 3
