REMARK  Name = 
REMARK  11 active torsions:
REMARK  status: ('A' for Active; 'I' for Inactive)
REMARK    1  A    between atoms: C_1  and  C_2
REMARK    2  A    between atoms: C_2  and  O_3
REMARK    3  A    between atoms: O_3  and  C_4
REMARK    4  A    between atoms: C_4  and  C_6
REMARK    5  A    between atoms: C_7  and  C_8
REMARK    6  A    between atoms: C_8  and  O_10
REMARK    7  A    between atoms: C_14  and  O_15
REMARK    8  A    between atoms: C_16  and  O_17
REMARK    9  A    between atoms: C_20  and  C_21
REMARK   10  A    between atoms: C_24  and  O_25
REMARK   11  A    between atoms: C_26  and  O_27
REMARK                            x       y       z     vdW  Elec       q    Type
REMARK                         _______ _______ _______ _____ _____    ______ ____
ROOT
ATOM      1  C   UNL     1       2.840   0.394   4.022  0.00  0.00    +0.000 C 
ATOM      2  C   UNL     1       1.290  -2.765   1.694  0.00  0.00    +0.000 C 
ATOM      3  C   UNL     1       1.618  -2.034   2.793  0.00  0.00    +0.000 C 
ATOM      4  C   UNL     1       2.492  -2.643   3.877  0.00  0.00    +0.000 A 
ATOM      5  C   UNL     1       2.972  -3.994   3.741  0.00  0.00    +0.000 A 
ATOM      6  C   UNL     1       3.800  -4.571   4.769  0.00  0.00    +0.000 A 
ATOM      7  C   UNL     1       4.148  -3.797   5.932  0.00  0.00    +0.000 A 
ATOM      8  C   UNL     1       3.668  -2.446   6.068  0.00  0.00    +0.000 A 
ATOM      9  C   UNL     1       2.840  -1.869   5.041  0.00  0.00    +0.000 A 
ATOM     10  C   UNL     1       2.334  -0.443   5.185  0.00  0.00    +0.000 C 
ENDROOT
BRANCH  10  11
ATOM     11  C   UNL     1       0.814  -0.443   5.185  0.00  0.00    +0.000 A 
ATOM     12  C   UNL     1       0.093  -1.172   6.197  0.00  0.00    +0.000 A 
ATOM     13  C   UNL     1       0.814  -1.901   7.209  0.00  0.00    +0.000 A 
ATOM     14  C   UNL     1       0.093  -2.630   8.221  0.00  0.00    +0.000 A 
ATOM     15  C   UNL     1      -1.347  -2.630   8.221  0.00  0.00    +0.000 A 
ATOM     16  C   UNL     1       0.093   0.286   4.172  0.00  0.00    +0.000 A 
BRANCH  14  17
ATOM     17  O   UNL     1       0.803  -3.348   9.219  0.00  0.00    +0.000 OA
ATOM     18  H   UNL     1       1.803  -3.348   9.219  0.00  0.00    +0.000 HD
ENDBRANCH  14  17
BRANCH  15  19
ATOM     19  O   UNL     1      -2.057  -3.348   9.219  0.00  0.00    +0.000 OA
ATOM     20  H   UNL     1      -3.057  -3.348   9.219  0.00  0.00    +0.000 HD
ENDBRANCH  15  19
ENDBRANCH  10  11
BRANCH   1  21
ATOM     21  C   UNL     1       4.360   0.394   4.022  0.00  0.00    +0.000 C 
ATOM     22  O   UNL     1       4.996   1.310   3.411  0.00  0.00    +0.000 OA
BRANCH  21  23
ATOM     23  O   UNL     1       5.070  -0.629   4.704  0.00  0.00    +0.000 OA
BRANCH  23  25
ATOM     24  C   UNL     1       6.997  -0.721   3.274  0.00  0.00    +0.000 C 
ATOM     25  C   UNL     1       6.490  -0.629   4.704  0.00  0.00    +0.000 C 
ENDBRANCH  23  25
ENDBRANCH  21  23
ENDBRANCH   1  21
BRANCH   2  26
ATOM     26  C   UNL     1       1.796  -4.191   1.550  0.00  0.00    +0.000 C 
ATOM     27  O   UNL     1       2.527  -4.700   2.457  0.00  0.00    +0.000 OA
BRANCH  26  28
ATOM     28  O   UNL     1       1.453  -4.954   0.403  0.00  0.00    +0.000 OA
ATOM     29  H   UNL     1       1.787  -5.892   0.308  0.00  0.00    +0.000 HD
ENDBRANCH  26  28
ENDBRANCH   2  26
BRANCH   6  30
ATOM     30  O   UNL     1       4.274  -5.903   4.634  0.00  0.00    +0.000 OA
ATOM     31  H   UNL     1       4.032  -6.441   3.826  0.00  0.00    +0.000 HD
ENDBRANCH   6  30
BRANCH   7  32
ATOM     32  O   UNL     1       4.965  -4.366   6.945  0.00  0.00    +0.000 OA
ATOM     33  H   UNL     1       5.206  -3.829   7.753  0.00  0.00    +0.000 HD
ENDBRANCH   7  32
TORSDOF 10
