REMARK  Name = 
REMARK  7 active torsions:
REMARK  status: ('A' for Active; 'I' for Inactive)
REMARK    1  A    between atoms: C_1  and  C_2
REMARK    2  A    between atoms: C_2  and  O_3
REMARK    3  A    between atoms: O_3  and  C_4
REMARK    4  A    between atoms: C_4  and  C_6
REMARK    5  A    between atoms: C_7  and  C_8
REMARK    6  A    between atoms: C_8  and  C_9
REMARK    7  A    between atoms: C_20  and  O_21
REMARK                            x       y       z     vdW  Elec       q    Type
REMARK                         _______ _______ _______ _____ _____    ______ ____
ROOT
ATOM      1  C   UNL     1       2.896   0.250   3.865  0.00  0.00    +0.000 A 
ATOM      2  C   UNL     1       4.311   0.344   4.110  0.00  0.00    +0.000 A 
ATOM      3  N   UNL     1       4.776   0.818   5.335  0.00  0.00    +0.000 N 
ATOM      4  C   UNL     1       3.871   1.200   6.322  0.00  0.00    +0.000 A 
ATOM      5  C   UNL     1       1.543   2.873  10.652  0.00  0.00    +0.000 A 
ATOM      6  C   UNL     1       1.063   2.384   9.385  0.00  0.00    +0.000 A 
ATOM      7  C   UNL     1       1.999   1.989   8.364  0.00  0.00    +0.000 A 
ATOM      8  C   UNL     1       1.519   1.499   7.098  0.00  0.00    +0.000 A 
ATOM      9  C   UNL     1       0.103   1.404   6.852  0.00  0.00    +0.000 A 
ATOM     10  C   UNL     1      -0.377   0.915   5.586  0.00  0.00    +0.000 A 
ATOM     11  C   UNL     1      -1.793   0.820   5.340  0.00  0.00    +0.000 A 
ATOM     12  C   UNL     1       1.975   0.615   4.810  0.00  0.00    +0.000 A 
ATOM     13  C   UNL     1       2.455   1.105   6.077  0.00  0.00    +0.000 A 
ATOM     14  H   UNL     1       5.779   0.885   5.509  0.00  0.00    +0.000 HD
ENDROOT
BRANCH   1  15
ATOM     15  C   UNL     1       2.389  -0.267   2.528  0.00  0.00    +0.000 C 
ATOM     16  O   UNL     1       3.215  -0.615   1.627  0.00  0.00    +0.000 OA
BRANCH  15  17
ATOM     17  O   UNL     1       0.993  -0.361   2.286  0.00  0.00    +0.000 OA
BRANCH  17  19
ATOM     18  C   UNL     1       1.026   0.056  -0.079  0.00  0.00    +0.000 C 
ATOM     19  C   UNL     1       0.519  -0.843   1.037  0.00  0.00    +0.000 C 
ENDBRANCH  17  19
ENDBRANCH  15  17
ENDBRANCH   1  15
BRANCH   7  20
ATOM     20  O   UNL     1       3.395   2.082   8.606  0.00  0.00    +0.000 OA
ATOM     21  H   UNL     1       3.728   2.422   9.486  0.00  0.00    +0.000 HD
ENDBRANCH   7  20
BRANCH   2  22
ATOM     22  C   UNL     1       5.299  -0.072   3.032  0.00  0.00    +0.000 C 
BRANCH  22  23
ATOM     23  C   UNL     1       6.173   1.115   2.660  0.00  0.00    +0.000 A 
ATOM     24  C   UNL     1       5.573   2.315   2.137  0.00  0.00    +0.000 A 
ATOM     25  C   UNL     1       4.145   2.390   1.967  0.00  0.00    +0.000 A 
ATOM     26  C   UNL     1       3.545   3.591   1.443  0.00  0.00    +0.000 A 
ATOM     27  C   UNL     1       2.117   3.666   1.273  0.00  0.00    +0.000 A 
ATOM     28  C   UNL     1       7.601   1.039   2.830  0.00  0.00    +0.000 A 
ATOM     29 CL   UNL     1       8.343  -0.445   3.477  0.00  0.00    +0.000 Cl
ENDBRANCH  22  23
ENDBRANCH   2  22
TORSDOF 6
