REMARK  Name = 
REMARK  6 active torsions:
REMARK  status: ('A' for Active; 'I' for Inactive)
REMARK    1  A    between atoms: C_1  and  N_2
REMARK    2  A    between atoms: C_3  and  C_5
REMARK    3  A    between atoms: C_5  and  O_6
REMARK    4  A    between atoms: O_6  and  C_7
REMARK    5  A    between atoms: C_7  and  C_9
REMARK    6  A    between atoms: C_11  and  C_12
REMARK                            x       y       z     vdW  Elec       q    Type
REMARK                         _______ _______ _______ _____ _____    ______ ____
ROOT
ATOM      1  C   UNL     1       2.538   3.045  -3.065  0.00  0.00    +0.000 A 
ATOM      2  C   UNL     1       3.432   4.174  -3.073  0.00  0.00    +0.000 A 
ATOM      3  C   UNL     1       3.126   5.341  -2.287  0.00  0.00    +0.000 A 
ATOM      4  N   UNL     1       1.965   5.378  -1.518  0.00  0.00    +0.000 NA
ATOM      5  C   UNL     1       1.669   6.506  -0.757  0.00  0.00    +0.000 A 
ATOM      6  C   UNL     1       0.469   6.544   0.038  0.00  0.00    +0.000 A 
ATOM      7  C   UNL     1      -0.425   5.415   0.047  0.00  0.00    +0.000 A 
ATOM      8  C   UNL     1      -1.626   5.453   0.842  0.00  0.00    +0.000 A 
ATOM      9  C   UNL     1      -2.520   4.324   0.851  0.00  0.00    +0.000 A 
ATOM     10  C   UNL     1       2.563   7.635  -0.766  0.00  0.00    +0.000 A 
ENDROOT
BRANCH   3  11
ATOM     11  C   UNL     1       4.069   6.533  -2.296  0.00  0.00    +0.000 A 
ATOM     12  C   UNL     1       5.269   6.495  -3.091  0.00  0.00    +0.000 A 
ATOM     13  C   UNL     1       5.575   5.328  -3.878  0.00  0.00    +0.000 A 
ATOM     14  C   UNL     1       6.776   5.290  -4.673  0.00  0.00    +0.000 A 
ATOM     15  O   UNL     1       3.783   7.623  -1.561  0.00  0.00    +0.000 OA
ENDBRANCH   3  11
BRANCH   1  16
ATOM     16  C   UNL     1       1.271   3.085  -2.226  0.00  0.00    +0.000 C 
ATOM     17  O   UNL     1       1.001   4.115  -1.531  0.00  0.00    +0.000 OA
BRANCH  16  18
ATOM     18  O   UNL     1       0.389   1.972  -2.217  0.00  0.00    +0.000 OA
BRANCH  18  19
ATOM     19  C   UNL     1      -0.794   2.009  -1.433  0.00  0.00    +0.000 C 
BRANCH  19  22
ATOM     20  C   UNL     1       0.908   0.031  -0.026  0.00  0.00    +0.000 C 
ATOM     21  N   UNL     1       0.418   1.205   0.709  0.00  0.00    +0.000 N 
ATOM     22  C   UNL     1      -0.427   2.198   0.030  0.00  0.00    +0.000 C 
ATOM     23  O   UNL     1      -0.850   3.214   0.665  0.00  0.00    +0.000 OA
ATOM     24  H   UNL     1       0.665   1.332   1.691  0.00  0.00    +0.000 HD
ENDBRANCH  19  22
ENDBRANCH  18  19
ENDBRANCH  16  18
ENDBRANCH   1  16
TORSDOF 5
