REMARK  Name = 
REMARK  10 active torsions:
REMARK  status: ('A' for Active; 'I' for Inactive)
REMARK    1  A    between atoms: C_1  and  C_2
REMARK    2  A    between atoms: C_2  and  C_3
REMARK    3  A    between atoms: C_3  and  N_4
REMARK    4  A    between atoms: C_8  and  C_9
REMARK    5  A    between atoms: C_11  and  C_12
REMARK    6  A    between atoms: C_15  and  C_16
REMARK    7  A    between atoms: C_20  and  O_21
REMARK    8  A    between atoms: O_21  and  C_22
REMARK    9  A    between atoms: C_26  and  C_27
REMARK   10  A    between atoms: C_27  and  O_28
REMARK                            x       y       z     vdW  Elec       q    Type
REMARK                         _______ _______ _______ _____ _____    ______ ____
ROOT
ATOM      1  N   UNL     1       0.503   2.632  -1.238  0.00  0.00    +0.000 N 
ATOM      2  C   UNL     1      -0.343   3.754  -1.670  0.00  0.00    +0.000 C 
ATOM      3  O   UNL     1      -0.766   3.806  -2.867  0.00  0.00    +0.000 OA
ATOM      4  N   UNL     1      -0.698   4.816  -0.718  0.00  0.00    +0.000 N 
ATOM      5  C   UNL     1      -1.543   5.938  -1.151  0.00  0.00    +0.000 C 
ATOM      6  C   UNL     1      -2.885   5.408  -1.626  0.00  0.00    +0.000 C 
ATOM      7  C   UNL     1      -0.208   4.756   0.667  0.00  0.00    +0.000 C 
ATOM      8  H   UNL     1       0.749   1.895  -1.898  0.00  0.00    +0.000 HD
ENDROOT
BRANCH   6   9
ATOM      9  C   UNL     1      -3.759   6.568  -2.073  0.00  0.00    +0.000 A 
ATOM     10  C   UNL     1      -4.107   7.609  -1.141  0.00  0.00    +0.000 A 
ATOM     11  C   UNL     1      -3.627   7.550   0.216  0.00  0.00    +0.000 A 
ATOM     12  C   UNL     1      -3.975   8.591   1.149  0.00  0.00    +0.000 A 
ATOM     13  C   UNL     1      -4.803   9.690   0.725  0.00  0.00    +0.000 A 
ATOM     14  C   UNL     1      -4.239   6.627  -3.430  0.00  0.00    +0.000 A 
BRANCH  12  15
ATOM     15  C   UNL     1      -3.468   8.528   2.580  0.00  0.00    +0.000 A 
ATOM     16  C   UNL     1      -2.640   7.429   3.004  0.00  0.00    +0.000 A 
ATOM     17  C   UNL     1      -2.292   6.388   2.071  0.00  0.00    +0.000 A 
ATOM     18  C   UNL     1      -1.464   5.289   2.495  0.00  0.00    +0.000 A 
ATOM     19  C   UNL     1      -1.117   4.248   1.562  0.00  0.00    +0.000 A 
ATOM     20  C   UNL     1      -3.816   9.569   3.513  0.00  0.00    +0.000 A 
BRANCH  19  21
ATOM     21  O   UNL     1      -1.590   4.306   0.225  0.00  0.00    +0.000 OA
ATOM     22  C   UNL     1      -1.247   3.280  -0.695  0.00  0.00    +0.000 C 
ENDBRANCH  19  21
ENDBRANCH  12  15
ENDBRANCH   6   9
BRANCH   5  23
ATOM     23  C   UNL     1      -0.859   6.679  -2.288  0.00  0.00    +0.000 C 
ATOM     24  N   UNL     1      -0.291   7.293  -3.232  0.00  0.00    +0.000 NA
ENDBRANCH   5  23
BRANCH   1  25
ATOM     25  C   UNL     1       0.993   2.571   0.147  0.00  0.00    +0.000 C 
BRANCH  25  27
ATOM     26  C   UNL     1       0.993   0.092   0.039  0.00  0.00    +0.000 C 
ATOM     27  C   UNL     1       0.486   1.300   0.809  0.00  0.00    +0.000 C 
ENDBRANCH  25  27
ENDBRANCH   1  25
BRANCH   7  28
ATOM     28  C   UNL     1      -1.390   4.715   1.621  0.00  0.00    +0.000 C 
BRANCH  28  29
ATOM     29  O   UNL     1      -2.179   3.566   1.348  0.00  0.00    +0.000 OA
ATOM     30  H   UNL     1      -2.512   3.607   0.406  0.00  0.00    +0.000 HD
ENDBRANCH  28  29
ENDBRANCH   7  28
TORSDOF 8
