REMARK  Name = 
REMARK  8 active torsions:
REMARK  status: ('A' for Active; 'I' for Inactive)
REMARK    1  A    between atoms: C_1  and  C_2
REMARK    2  A    between atoms: C_5  and  S_6
REMARK    3  A    between atoms: S_6  and  N_9
REMARK    4  A    between atoms: C_12  and  C_13
REMARK    5  A    between atoms: N_15  and  C_16
REMARK    6  A    between atoms: C_19  and  N_20
REMARK    7  A    between atoms: C_26  and  C_27
REMARK    8  A    between atoms: C_33  and  C_34
REMARK                            x       y       z     vdW  Elec       q    Type
REMARK                         _______ _______ _______ _____ _____    ______ ____
ROOT
ATOM      1  C   UNL     1       4.398   0.849   7.317  0.00  0.00    +0.000 C 
ATOM      2  O   UNL     1       4.858   1.360   8.386  0.00  0.00    +0.000 OA
ATOM      3  N   UNL     1       3.130   0.105   7.345  0.00  0.00    +0.000 N 
ATOM      4  H   UNL     1       2.620  -0.001   8.222  0.00  0.00    +0.000 HD
ENDROOT
BRANCH   1   8
ATOM      5  N   UNL     1       3.413  -0.467   4.248  0.00  0.00    +0.000 NA
ATOM      6  C   UNL     1       4.258  -1.170   5.224  0.00  0.00    +0.000 C 
ATOM      7  C   UNL     1       5.525  -0.366   5.469  0.00  0.00    +0.000 C 
ATOM      8  C   UNL     1       5.158   1.006   6.010  0.00  0.00    +0.000 C 
ATOM      9  C   UNL     1       6.425   1.810   6.255  0.00  0.00    +0.000 C 
ATOM     10  C   UNL     1       4.148  -0.315   2.984  0.00  0.00    +0.000 C 
BRANCH   5  11
ATOM     11  S   UNL     1       2.988   1.121   4.875  0.00  0.00    +0.000 S 
ATOM     12  O   UNL     1       4.263   1.931   5.121  0.00  0.00    +0.000 OA
ATOM     13  O   UNL     1       2.223   0.962   6.191  0.00  0.00    +0.000 OA
BRANCH  11  18
ATOM     14  C   UNL     1       0.930  -0.007  -0.071  0.00  0.00    +0.000 C 
ATOM     15  C   UNL     1       0.424   1.394   0.230  0.00  0.00    +0.000 A 
ATOM     16  C   UNL     1       0.772   2.034   1.473  0.00  0.00    +0.000 A 
ATOM     17  C   UNL     1       1.600   1.346   2.430  0.00  0.00    +0.000 A 
ATOM     18  C   UNL     1       1.948   1.986   3.672  0.00  0.00    +0.000 A 
ATOM     19  C   UNL     1       1.467   3.313   3.958  0.00  0.00    +0.000 A 
ATOM     20  C   UNL     1       1.835   3.988   5.269  0.00  0.00    +0.000 C 
ATOM     21  C   UNL     1      -0.404   2.082  -0.727  0.00  0.00    +0.000 A 
ENDBRANCH  11  18
ENDBRANCH   5  11
ENDBRANCH   1   8
BRANCH   3  22
ATOM     22  C   UNL     1       2.598  -0.486   6.109  0.00  0.00    +0.000 A 
ATOM     23  C   UNL     1       3.318  -0.337   4.871  0.00  0.00    +0.000 A 
ATOM     24  C   UNL     1       4.560   0.392   4.843  0.00  0.00    +0.000 A 
ATOM     25  C   UNL     1       5.280   0.541   3.605  0.00  0.00    +0.000 A 
ATOM     26  C   UNL     1       4.758  -0.038   2.394  0.00  0.00    +0.000 A 
ATOM     27  C   UNL     1       1.356  -1.215   6.136  0.00  0.00    +0.000 A 
BRANCH  25  28
ATOM     28  N   UNL     1       6.547   1.285   3.577  0.00  0.00    +0.000 N 
ATOM     29  C   UNL     1       7.080   1.876   4.813  0.00  0.00    +0.000 C 
ATOM     30  C   UNL     1       6.080   2.877   5.369  0.00  0.00    +0.000 C 
ATOM     31  C   UNL     1       4.769   2.168   5.670  0.00  0.00    +0.000 C 
ATOM     32  C   UNL     1       5.009   1.071   6.693  0.00  0.00    +0.000 C 
ATOM     33  C   UNL     1       7.282   1.438   2.313  0.00  0.00    +0.000 C 
ENDBRANCH  25  28
BRANCH  26  34
ATOM     34  C   UNL     1       5.518   0.120   1.087  0.00  0.00    +0.000 C 
ATOM     35  N   UNL     1       6.785   0.864   1.059  0.00  0.00    +0.000 N 
ATOM     36  O   UNL     1       5.057  -0.391   0.019  0.00  0.00    +0.000 OA
ATOM     37  H   UNL     1       7.295   0.970   0.182  0.00  0.00    +0.000 HD
ATOM     38  H   UNL     1       7.155   1.274   1.917  0.00  0.00    +0.000 HD
ENDBRANCH  26  34
ENDBRANCH   3  22
TORSDOF 6
