REMARK  Name = 
REMARK  9 active torsions:
REMARK  status: ('A' for Active; 'I' for Inactive)
REMARK    1  A    between atoms: C_1  and  C_2
REMARK    2  A    between atoms: C_2  and  O_3
REMARK    3  A    between atoms: O_3  and  C_4
REMARK    4  A    between atoms: C_7  and  C_8
REMARK    5  A    between atoms: N_10  and  C_11
REMARK    6  A    between atoms: C_19  and  C_20
REMARK    7  A    between atoms: N_25  and  C_26
REMARK    8  A    between atoms: C_26  and  C_27
REMARK    9  A    between atoms: C_27  and  O_29
REMARK                            x       y       z     vdW  Elec       q    Type
REMARK                         _______ _______ _______ _____ _____    ______ ____
ROOT
ATOM      1  C   UNL     1       1.329  -3.846  -6.359  0.00  0.00    +0.000 A 
ATOM      2  N   UNL     1      -0.040  -3.681  -6.165  0.00  0.00    +0.000 NA
ATOM      3  N   UNL     1      -0.915  -4.344  -6.944  0.00  0.00    +0.000 N 
ATOM      4  C   UNL     1      -2.284  -4.179  -6.750  0.00  0.00    +0.000 A 
ATOM      5  C   UNL     1       1.809  -4.726  -7.392  0.00  0.00    +0.000 A 
ENDROOT
BRANCH   5   6
ATOM      6  C   UNL     1       3.304  -4.906  -7.604  0.00  0.00    +0.000 C 
ATOM      7  C   UNL     1       4.188  -4.236  -6.817  0.00  0.00    +0.000 C 
ATOM      8  S   UNL     1       5.967  -4.450  -7.069  0.00  0.00    +0.000 S 
ATOM      9  C   UNL     1       6.872  -3.434  -5.875  0.00  0.00    +0.000 C 
ATOM     10  O   UNL     1       6.237  -2.721  -5.037  0.00  0.00    +0.000 OA
ATOM     11  N   UNL     1       8.342  -3.434  -5.875  0.00  0.00    +0.000 N 
ATOM     12  C   UNL     1       3.681  -3.307  -5.726  0.00  0.00    +0.000 C 
ATOM     13  O   UNL     1       2.431  -3.156  -5.549  0.00  0.00    +0.000 OA
BRANCH  11  14
ATOM     14  C   UNL     1       9.077  -2.609  -4.906  0.00  0.00    +0.000 C 
BRANCH  14  15
ATOM     15  C   UNL     1       8.710  -1.147  -5.104  0.00  0.00    +0.000 C 
ATOM     16  O   UNL     1       8.180  -0.491  -4.153  0.00  0.00    +0.000 OA
BRANCH  15  17
ATOM     17  O   UNL     1       8.958  -0.515  -6.351  0.00  0.00    +0.000 OA
ATOM     18  H   UNL     1       8.717   0.447  -6.481  0.00  0.00    +0.000 HD
ENDBRANCH  15  17
ENDBRANCH  14  15
ENDBRANCH  11  14
ENDBRANCH   5   6
BRANCH   3  19
ATOM     19  C   UNL     1      -0.425  -5.243  -7.999  0.00  0.00    +0.000 A 
ATOM     20  C   UNL     1       0.991  -5.413  -8.199  0.00  0.00    +0.000 A 
ATOM     21  C   UNL     1       1.927  -4.703  -7.366  0.00  0.00    +0.000 A 
ATOM     22  C   UNL     1       3.343  -4.874  -7.566  0.00  0.00    +0.000 A 
ATOM     23 CL   UNL     1       4.500  -3.997  -6.536  0.00  0.00    +0.000 Cl
ATOM     24  C   UNL     1       3.823  -5.755  -8.600  0.00  0.00    +0.000 A 
ATOM     25  C   UNL     1      -1.361  -5.952  -8.832  0.00  0.00    +0.000 A 
ENDBRANCH   3  19
BRANCH   1  29
ATOM     26  C   UNL     1       2.293  -0.626  -2.578  0.00  0.00    +0.000 A 
ATOM     27  C   UNL     1       2.773  -1.507  -3.612  0.00  0.00    +0.000 A 
ATOM     28  C   UNL     1       1.837  -2.216  -4.445  0.00  0.00    +0.000 A 
ATOM     29  C   UNL     1       2.317  -3.097  -5.479  0.00  0.00    +0.000 A 
ATOM     30  C   UNL     1       3.733  -3.268  -5.680  0.00  0.00    +0.000 A 
ATOM     31  C   UNL     1       3.228   0.083  -1.745  0.00  0.00    +0.000 A 
BRANCH  26  32
ATOM     32  O   UNL     1       0.896  -0.458  -2.381  0.00  0.00    +0.000 OA
BRANCH  32  34
ATOM     33  C   UNL     1       0.930  -0.070  -0.011  0.00  0.00    +0.000 C 
ATOM     34  C   UNL     1       0.423   0.410  -1.361  0.00  0.00    +0.000 C 
ENDBRANCH  32  34
ENDBRANCH  26  32
ENDBRANCH   1  29
TORSDOF 8
