REMARK  Name = 
REMARK  7 active torsions:
REMARK  status: ('A' for Active; 'I' for Inactive)
REMARK    1  A    between atoms: C_1  and  O_2
REMARK    2  A    between atoms: O_2  and  C_3
REMARK    3  A    between atoms: C_6  and  C_7
REMARK    4  A    between atoms: C_13  and  C_14
REMARK    5  A    between atoms: C_15  and  O_16
REMARK    6  A    between atoms: O_16  and  C_17
REMARK    7  A    between atoms: C_17  and  C_19
REMARK                            x       y       z     vdW  Elec       q    Type
REMARK                         _______ _______ _______ _____ _____    ______ ____
ROOT
ATOM      1  C   UNL     1      -1.720   0.006   5.942  0.00  0.00    +0.000 A 
ATOM      2  C   UNL     1      -2.068   1.238   5.283  0.00  0.00    +0.000 A 
ATOM      3  C   UNL     1      -1.588   1.502   3.951  0.00  0.00    +0.000 A 
ATOM      4  O   UNL     1      -1.895   2.589   3.369  0.00  0.00    +0.000 OA
ATOM      5  O   UNL     1      -0.815   0.598   3.323  0.00  0.00    +0.000 OA
ATOM      6  C   UNL     1      -0.366   0.845   2.079  0.00  0.00    +0.000 A 
ATOM      7  C   UNL     1       0.462  -0.123   1.406  0.00  0.00    +0.000 A 
ATOM      8  C   UNL     1       0.829  -1.423   2.103  0.00  0.00    +0.000 C 
ATOM      9  C   UNL     1       0.942   0.141   0.075  0.00  0.00    +0.000 A 
ATOM     10  C   UNL     1       1.770  -0.827  -0.598  0.00  0.00    +0.000 A 
ATOM     11  C   UNL     1       2.118  -2.059   0.062  0.00  0.00    +0.000 A 
ATOM     12  C   UNL     1      -0.714   2.077   1.419  0.00  0.00    +0.000 A 
ENDROOT
BRANCH   1  16
ATOM     13  C   UNL     1       0.942  -1.455   1.897  0.00  0.00    +0.000 A 
ATOM     14  C   UNL     1       0.462  -1.719   3.229  0.00  0.00    +0.000 A 
ATOM     15  C   UNL     1      -0.366  -0.751   3.901  0.00  0.00    +0.000 A 
ATOM     16  C   UNL     1      -0.847  -1.015   5.233  0.00  0.00    +0.000 A 
ATOM     17  C   UNL     1      -0.499  -2.247   5.893  0.00  0.00    +0.000 A 
ATOM     18  C   UNL     1       1.770  -2.423   1.225  0.00  0.00    +0.000 A 
BRANCH  13  20
ATOM     19  C   UNL     1       1.072   0.020  -0.067  0.00  0.00    +0.000 C 
ATOM     20  O   UNL     1       0.599  -0.240   1.247  0.00  0.00    +0.000 OA
ENDBRANCH  13  20
ENDBRANCH   1  16
BRANCH   9  21
ATOM     21  O   UNL     1       0.599   1.356  -0.576  0.00  0.00    +0.000 OA
BRANCH  21  22
ATOM     22  C   UNL     1      -0.218   2.310   0.087  0.00  0.00    +0.000 C 
ATOM     23  O   UNL     1      -0.641   2.077   1.262  0.00  0.00    +0.000 OA
BRANCH  22  24
ATOM     24  C   UNL     1      -0.585   3.610  -0.610  0.00  0.00    +0.000 A 
ATOM     25  C   UNL     1      -1.413   4.578   0.062  0.00  0.00    +0.000 A 
ATOM     26  C   UNL     1      -1.893   4.314   1.394  0.00  0.00    +0.000 A 
ATOM     27  C   UNL     1      -2.721   5.282   2.066  0.00  0.00    +0.000 A 
ATOM     28  S   UNL     1      -0.013   3.925  -2.196  0.00  0.00    +0.000 S 
ENDBRANCH  22  24
ENDBRANCH  21  22
ENDBRANCH   9  21
TORSDOF 5
