REMARK  Name = 
REMARK  8 active torsions:
REMARK  status: ('A' for Active; 'I' for Inactive)
REMARK    1  A    between atoms: C_6  and  O_7
REMARK    2  A    between atoms: O_7  and  C_8
REMARK    3  A    between atoms: C_23  and  O_24
REMARK    4  A    between atoms: O_24  and  C_25
REMARK    5  A    between atoms: C_25  and  C_26
REMARK    6  A    between atoms: C_26  and  O_27
REMARK    7  A    between atoms: C_26  and  C_28
REMARK    8  A    between atoms: C_28  and  O_29
REMARK                            x       y       z     vdW  Elec       q    Type
REMARK                         _______ _______ _______ _____ _____    ______ ____
ROOT
ATOM      1  O   UNL     1       0.954  -0.072   0.052  0.00  0.00    +0.000 OA
ATOM      2  C   UNL     1       2.225  -0.072   0.052  0.00  0.00    +0.000 C 
ATOM      3  C   UNL     1       2.985  -0.470   1.307  0.00  0.00    +0.000 A 
ATOM      4  C   UNL     1       4.425  -0.470   1.307  0.00  0.00    +0.000 A 
ATOM      5  C   UNL     1       5.145  -0.093   0.118  0.00  0.00    +0.000 A 
ATOM      6  C   UNL     1       6.585  -0.093   0.118  0.00  0.00    +0.000 A 
ATOM      7  C   UNL     1       7.305  -0.470   1.307  0.00  0.00    +0.000 A 
ATOM      8  C   UNL     1       2.265  -0.848   2.495  0.00  0.00    +0.000 A 
ATOM      9  C   UNL     1       0.745  -0.848   2.495  0.00  0.00    +0.000 C 
ATOM     10  C   UNL     1       0.238   0.552   2.188  0.00  0.00    +0.000 C 
ATOM     11  C   UNL     1       0.745   0.986   0.823  0.00  0.00    +0.000 A 
ATOM     12  C   UNL     1       2.161   1.065   0.572  0.00  0.00    +0.000 A 
ATOM     13  C   UNL     1       3.097   0.734   1.615  0.00  0.00    +0.000 A 
ATOM     14  C   UNL     1       4.513   0.814   1.364  0.00  0.00    +0.000 A 
ATOM     15  C   UNL     1       4.993   1.225   0.070  0.00  0.00    +0.000 A 
ATOM     16  C   UNL     1       2.985   0.327  -1.202  0.00  0.00    +0.000 A 
ENDROOT
BRANCH   6  17
ATOM     17  O   UNL     1       7.295   0.280  -1.054  0.00  0.00    +0.000 OA
BRANCH  17  18
ATOM     18  C   UNL     1       6.585   0.652  -2.226  0.00  0.00    +0.000 A 
ATOM     19  C   UNL     1       7.305   1.030  -3.415  0.00  0.00    +0.000 A 
ATOM     20  C   UNL     1       8.746   1.030  -3.415  0.00  0.00    +0.000 A 
ATOM     21  C   UNL     1       9.466   1.408  -4.603  0.00  0.00    +0.000 A 
ATOM     22  F   UNL     1      10.796   1.408  -4.603  0.00  0.00    +0.000 F 
ATOM     23  C   UNL     1       8.746   1.785  -5.792  0.00  0.00    +0.000 A 
ATOM     24  C   UNL     1       5.145   0.652  -2.226  0.00  0.00    +0.000 A 
ATOM     25  F   UNL     1       4.480   0.303  -1.128  0.00  0.00    +0.000 F 
ENDBRANCH  17  18
ENDBRANCH   6  17
BRANCH  14  26
ATOM     26  O   UNL     1       5.435   0.487   2.393  0.00  0.00    +0.000 OA
BRANCH  26  27
ATOM     27  C   UNL     1       4.962   0.081   3.669  0.00  0.00    +0.000 C 
BRANCH  27  28
ATOM     28  C   UNL     1       4.118   1.192   4.272  0.00  0.00    +0.000 C 
BRANCH  28  29
ATOM     29  O   UNL     1       3.013   1.462   3.422  0.00  0.00    +0.000 OA
ATOM     30  H   UNL     1       3.346   1.747   2.523  0.00  0.00    +0.000 HD
ENDBRANCH  28  29
BRANCH  28  31
ATOM     31  C   UNL     1       3.611   0.758   5.638  0.00  0.00    +0.000 C 
BRANCH  31  32
ATOM     32  O   UNL     1       4.715   0.487   6.489  0.00  0.00    +0.000 OA
ATOM     33  H   UNL     1       5.271  -0.243   6.092  0.00  0.00    +0.000 HD
ENDBRANCH  31  32
ENDBRANCH  28  31
ENDBRANCH  27  28
ENDBRANCH  26  27
ENDBRANCH  14  26
TORSDOF 8
