REMARK  Name = 
REMARK  5 active torsions:
REMARK  status: ('A' for Active; 'I' for Inactive)
REMARK    1  A    between atoms: C_2  and  O_3
REMARK    2  A    between atoms: C_2  and  C_19
REMARK    3  A    between atoms: O_3  and  C_4
REMARK    4  A    between atoms: C_9  and  C_10
REMARK    5  A    between atoms: N_12  and  C_13
REMARK                            x       y       z     vdW  Elec       q    Type
REMARK                         _______ _______ _______ _____ _____    ______ ____
ROOT
ATOM      1  C   UNL     1       4.390   1.146   0.204  0.00  0.00    +0.000 A 
ATOM      2  C   UNL     1       5.110   2.385   0.347  0.00  0.00    +0.000 A 
ATOM      3  C   UNL     1       4.390   3.624   0.489  0.00  0.00    +0.000 A 
ATOM      4  C   UNL     1       5.110   4.863   0.632  0.00  0.00    +0.000 A 
ATOM      5  C   UNL     1       4.390   6.102   0.774  0.00  0.00    +0.000 A 
ATOM      6  C   UNL     1       5.110  -0.093   0.062  0.00  0.00    +0.000 A 
ENDROOT
BRANCH   6   7
ATOM      7  C   UNL     1       4.350  -1.401  -0.088  0.00  0.00    +0.000 C 
ATOM      8  O   UNL     1       3.079  -1.401  -0.088  0.00  0.00    +0.000 OA
ATOM      9  N   UNL     1       5.085  -2.666  -0.234  0.00  0.00    +0.000 N 
ATOM     10  H   UNL     1       4.575  -3.543  -0.335  0.00  0.00    +0.000 HD
BRANCH   9  11
ATOM     11  C   UNL     1       6.555  -2.666  -0.234  0.00  0.00    +0.000 A 
ATOM     12  C   UNL     1       7.275  -1.427  -0.091  0.00  0.00    +0.000 A 
ATOM     13  C   UNL     1       6.555  -0.188   0.051  0.00  0.00    +0.000 A 
ATOM     14  C   UNL     1       7.275   1.051   0.194  0.00  0.00    +0.000 A 
ATOM     15  C   UNL     1       6.555   2.290   0.336  0.00  0.00    +0.000 A 
ATOM     16  C   UNL     1       7.275  -3.905  -0.376  0.00  0.00    +0.000 A 
ENDBRANCH   9  11
ENDBRANCH   6   7
BRANCH   1  17
ATOM     17  O   UNL     1       2.970   1.146   0.204  0.00  0.00    +0.000 OA
BRANCH  17  19
ATOM     18  O   UNL     1       0.989  -0.076   0.064  0.00  0.00    +0.000 OA
ATOM     19  C   UNL     1       2.260  -0.076   0.064  0.00  0.00    +0.000 C 
BRANCH  19  20
ATOM     20  C   UNL     1       3.020  -1.384  -0.086  0.00  0.00    +0.000 A 
ATOM     21  C   UNL     1       4.460  -1.384  -0.086  0.00  0.00    +0.000 A 
ATOM     22  C   UNL     1       5.180  -0.145   0.056  0.00  0.00    +0.000 A 
ATOM     23  C   UNL     1       6.620  -0.145   0.056  0.00  0.00    +0.000 A 
ATOM     24  C   UNL     1       7.340   1.094   0.198  0.00  0.00    +0.000 A 
ATOM     25  C   UNL     1       2.300  -2.623  -0.229  0.00  0.00    +0.000 A 
ATOM     26 BR   UNL     1       0.340  -2.623  -0.229  0.00  0.00    +0.000 Br
ENDBRANCH  19  20
ENDBRANCH  17  19
ENDBRANCH   1  17
TORSDOF 5
