REMARK  Name = 
REMARK  11 active torsions:
REMARK  status: ('A' for Active; 'I' for Inactive)
REMARK    1  A    between atoms: C_1  and  O_2
REMARK    2  A    between atoms: O_2  and  C_3
REMARK    3  A    between atoms: C_6  and  C_7
REMARK    4  A    between atoms: C_11  and  S_12
REMARK    5  A    between atoms: S_12  and  C_13
REMARK    6  A    between atoms: C_13  and  C_14
REMARK    7  A    between atoms: N_16  and  C_17
REMARK    8  A    between atoms: C_21  and  O_22
REMARK    9  A    between atoms: C_27  and  C_28
REMARK   10  A    between atoms: C_28  and  O_29
REMARK   11  A    between atoms: C_32  and  C_33
REMARK                            x       y       z     vdW  Elec       q    Type
REMARK                         _______ _______ _______ _____ _____    ______ ____
ROOT
ATOM      1  C   UNL     1      -1.707  -0.591   6.021  0.00  0.00    +0.000 A 
ATOM      2  N   UNL     1      -2.043   0.653   5.493  0.00  0.00    +0.000 NA
ATOM      3  C   UNL     1      -2.844   1.527   6.224  0.00  0.00    +0.000 A 
ATOM      4  C   UNL     1      -3.192   2.813   5.678  0.00  0.00    +0.000 A 
ATOM      5  C   UNL     1      -2.712   3.196   4.376  0.00  0.00    +0.000 A 
ATOM      6  N   UNL     1      -2.171  -0.962   7.280  0.00  0.00    +0.000 NA
ATOM      7  C   UNL     1      -4.066   3.767   6.477  0.00  0.00    +0.000 C 
ATOM      8  C   UNL     1      -5.408   3.111   6.755  0.00  0.00    +0.000 A 
ATOM      9  C   UNL     1      -6.250   2.701   5.661  0.00  0.00    +0.000 A 
ATOM     10  C   UNL     1      -7.522   2.079   5.925  0.00  0.00    +0.000 A 
ATOM     11  N   UNL     1      -7.938   1.874   7.238  0.00  0.00    +0.000 NA
ATOM     12  C   UNL     1      -7.124   2.271   8.297  0.00  0.00    +0.000 A 
ATOM     13  C   UNL     1      -7.578   2.047   9.730  0.00  0.00    +0.000 C 
ATOM     14  C   UNL     1      -5.838   2.899   8.113  0.00  0.00    +0.000 A 
ATOM     15  O   UNL     1      -3.317   1.149   7.509  0.00  0.00    +0.000 OA
ENDROOT
BRANCH   1  19
ATOM     16  C   UNL     1       0.955  -1.682   1.860  0.00  0.00    +0.000 A 
ATOM     17  C   UNL     1       0.475  -2.065   3.163  0.00  0.00    +0.000 A 
ATOM     18  C   UNL     1      -0.353  -1.161   3.919  0.00  0.00    +0.000 A 
ATOM     19  C   UNL     1      -0.833  -1.545   5.222  0.00  0.00    +0.000 A 
ATOM     20  C   UNL     1      -0.485  -2.831   5.768  0.00  0.00    +0.000 A 
ATOM     21  C   UNL     1       1.783  -2.585   1.103  0.00  0.00    +0.000 A 
BRANCH  16  23
ATOM     22  C   UNL     1       1.086  -0.035   0.037  0.00  0.00    +0.000 C 
ATOM     23  O   UNL     1       0.612  -0.413   1.322  0.00  0.00    +0.000 OA
ENDBRANCH  16  23
ENDBRANCH   1  19
BRANCH   5  24
ATOM     24  S   UNL     1      -1.671   2.061   3.425  0.00  0.00    +0.000 S 
BRANCH  24  25
ATOM     25  C   UNL     1      -1.234   2.825   1.843  0.00  0.00    +0.000 C 
BRANCH  25  26
ATOM     26  C   UNL     1      -2.500   3.128   1.059  0.00  0.00    +0.000 C 
ATOM     27  O   UNL     1      -2.771   4.324   0.726  0.00  0.00    +0.000 OA
ATOM     28  N   UNL     1      -3.413   2.037   0.687  0.00  0.00    +0.000 N 
ATOM     29  H   UNL     1      -4.263   2.241   0.161  0.00  0.00    +0.000 HD
BRANCH  28  30
ATOM     30  C   UNL     1      -3.101   0.654   1.072  0.00  0.00    +0.000 A 
ATOM     31  C   UNL     1      -1.900   0.366   1.815  0.00  0.00    +0.000 A 
ATOM     32  C   UNL     1      -1.006   1.435   2.180  0.00  0.00    +0.000 A 
ATOM     33  C   UNL     1       0.194   1.148   2.922  0.00  0.00    +0.000 A 
ATOM     34  C   UNL     1       1.088   2.216   3.287  0.00  0.00    +0.000 A 
ATOM     35  C   UNL     1      -3.995  -0.415   0.707  0.00  0.00    +0.000 A 
BRANCH  34  36
ATOM     36  O   UNL     1       0.786   3.553   2.915  0.00  0.00    +0.000 OA
ATOM     37  H   UNL     1       1.407   4.295   3.168  0.00  0.00    +0.000 HD
ENDBRANCH  34  36
ENDBRANCH  28  30
ENDBRANCH  25  26
ENDBRANCH  24  25
ENDBRANCH   5  24
BRANCH   9  38
ATOM     38  C   UNL     1      -5.796   2.924   4.228  0.00  0.00    +0.000 C 
BRANCH  38  39
ATOM     39  O   UNL     1      -5.713   1.675   3.557  0.00  0.00    +0.000 OA
ATOM     40  H   UNL     1      -5.055   1.087   4.028  0.00  0.00    +0.000 HD
ENDBRANCH  38  39
ENDBRANCH   9  38
TORSDOF 9
