MODEL 1
REMARK VINA RESULT:    -6.235      0.000      0.000
REMARK INTER + INTRA:          -9.915
REMARK INTER:                  -8.422
REMARK INTRA:                  -1.492
REMARK UNBOUND:                -1.492
REMARK  Name = 
REMARK  7 active torsions:
REMARK  status: ('A' for Active; 'I' for Inactive)
REMARK    1  A    between atoms: C_1  and  O_2
REMARK    2  A    between atoms: O_2  and  C_3
REMARK    3  A    between atoms: C_6  and  C_7
REMARK    4  A    between atoms: N_9  and  N_10
REMARK    5  A    between atoms: N_10  and  C_11
REMARK    6  A    between atoms: C_11  and  N_13
REMARK    7  A    between atoms: C_14  and  C_16
REMARK                            x       y       z     vdW  Elec       q    Type
REMARK                         _______ _______ _______ _____ _____    ______ ____
ROOT
ATOM      1  N   UNL     1      11.877   3.656  27.850  0.00  0.00    +0.000 N 
ATOM      2  H   UNL     1      12.226   2.863  27.311  0.00  0.00    +0.000 HD
ENDROOT
BRANCH   1   5
ATOM      3  C   UNL     1       9.578   3.255  26.946  0.00  0.00    +0.000 C 
ATOM      4  O   UNL     1       8.376   3.642  26.802  0.00  0.00    +0.000 OA
ATOM      5  N   UNL     1      10.534   4.089  27.688  0.00  0.00    +0.000 N 
ATOM      6  H   UNL     1      10.234   4.978  28.087  0.00  0.00    +0.000 HD
BRANCH   3  10
ATOM      7  C   UNL     1      11.424   0.565  23.080  0.00  0.00    +0.000 A 
ATOM      8  C   UNL     1      10.937   0.619  24.435  0.00  0.00    +0.000 A 
ATOM      9  C   UNL     1      10.513   1.875  24.998  0.00  0.00    +0.000 A 
ATOM     10  C   UNL     1      10.026   1.930  26.352  0.00  0.00    +0.000 A 
ATOM     11  C   UNL     1       9.962   0.728  27.144  0.00  0.00    +0.000 A 
ATOM     12  C   UNL     1      11.848  -0.692  22.518  0.00  0.00    +0.000 A 
BRANCH   7  14
ATOM     13  C   UNL     1      12.244   1.769  21.099  0.00  0.00    +0.000 C 
ATOM     14  O   UNL     1      11.487   1.749  22.301  0.00  0.00    +0.000 OA
ENDBRANCH   7  14
ENDBRANCH   3  10
ENDBRANCH   1   5
BRANCH   1  15
ATOM     15  C   UNL     1      12.765   4.351  28.793  0.00  0.00    +0.000 C 
ATOM     16  S   UNL     1      12.913   5.963  28.727  0.00  0.00    +0.000 S 
BRANCH  15  17
ATOM     17  N   UNL     1      13.520   3.583  29.795  0.00  0.00    +0.000 N 
ATOM     18  C   UNL     1      14.788   2.940  29.424  0.00  0.00    +0.000 C 
ATOM     19  O   UNL     1      15.440   2.277  30.290  0.00  0.00    +0.000 OA
ATOM     20  H   UNL     1      13.162   3.497  30.745  0.00  0.00    +0.000 HD
BRANCH  18  21
ATOM     21  C   UNL     1      15.321   3.070  28.007  0.00  0.00    +0.000 A 
ATOM     22  C   UNL     1      15.039   2.045  27.036  0.00  0.00    +0.000 A 
ATOM     23  C   UNL     1      14.253   0.896  27.408  0.00  0.00    +0.000 A 
ATOM     24  C   UNL     1      13.972  -0.130  26.437  0.00  0.00    +0.000 A 
ATOM     25 CL   UNL     1      13.002  -1.549  26.897  0.00  0.00    +0.000 Cl
ATOM     26  C   UNL     1      14.476  -0.007  25.093  0.00  0.00    +0.000 A 
ATOM     27  C   UNL     1      16.106   4.218  27.635  0.00  0.00    +0.000 A 
ENDBRANCH  18  21
ENDBRANCH  15  17
ENDBRANCH   1  15
TORSDOF 6
ENDMDL
MODEL 2
REMARK VINA RESULT:    -6.068     27.348     30.827
REMARK INTER + INTRA:          -9.689
REMARK INTER:                  -9.153
REMARK INTRA:                  -0.536
REMARK UNBOUND:                -1.492
REMARK  Name = 
REMARK  7 active torsions:
REMARK  status: ('A' for Active; 'I' for Inactive)
REMARK    1  A    between atoms: C_1  and  O_2
REMARK    2  A    between atoms: O_2  and  C_3
REMARK    3  A    between atoms: C_6  and  C_7
REMARK    4  A    between atoms: N_9  and  N_10
REMARK    5  A    between atoms: N_10  and  C_11
REMARK    6  A    between atoms: C_11  and  N_13
REMARK    7  A    between atoms: C_14  and  C_16
REMARK                            x       y       z     vdW  Elec       q    Type
REMARK                         _______ _______ _______ _____ _____    ______ ____
ROOT
ATOM      1  N   UNL     1      37.131  11.179  41.821  0.00  0.00    +0.000 N 
ATOM      2  H   UNL     1      37.489  10.390  42.359  0.00  0.00    +0.000 HD
ENDROOT
BRANCH   1   5
ATOM      3  C   UNL     1      35.054   9.873  41.332  0.00  0.00    +0.000 C 
ATOM      4  O   UNL     1      33.899   9.810  40.804  0.00  0.00    +0.000 OA
ATOM      5  N   UNL     1      35.842  11.109  41.229  0.00  0.00    +0.000 N 
ATOM      6  H   UNL     1      35.464  11.916  40.733  0.00  0.00    +0.000 HD
BRANCH   3  10
ATOM      7  C   UNL     1      36.229   4.955  41.484  0.00  0.00    +0.000 A 
ATOM      8  C   UNL     1      36.190   6.244  42.129  0.00  0.00    +0.000 A 
ATOM      9  C   UNL     1      35.656   7.383  41.427  0.00  0.00    +0.000 A 
ATOM     10  C   UNL     1      35.617   8.671  42.071  0.00  0.00    +0.000 A 
ATOM     11  C   UNL     1      36.111   8.819  43.416  0.00  0.00    +0.000 A 
ATOM     12  C   UNL     1      36.762   3.816  42.185  0.00  0.00    +0.000 A 
BRANCH   7  14
ATOM     13  C   UNL     1      34.392   4.427  39.937  0.00  0.00    +0.000 C 
ATOM     14  O   UNL     1      35.742   4.810  40.159  0.00  0.00    +0.000 OA
ENDBRANCH   7  14
ENDBRANCH   3  10
ENDBRANCH   1   5
BRANCH   1  15
ATOM     15  C   UNL     1      37.951  12.388  41.655  0.00  0.00    +0.000 C 
ATOM     16  S   UNL     1      37.314  13.846  41.962  0.00  0.00    +0.000 S 
BRANCH  15  17
ATOM     17  N   UNL     1      39.348  12.274  41.210  0.00  0.00    +0.000 N 
ATOM     18  C   UNL     1      40.439  12.340  42.192  0.00  0.00    +0.000 C 
ATOM     19  O   UNL     1      41.646  12.241  41.806  0.00  0.00    +0.000 OA
ATOM     20  H   UNL     1      39.558  12.151  40.220  0.00  0.00    +0.000 HD
BRANCH  18  21
ATOM     21  C   UNL     1      40.124  12.523  43.667  0.00  0.00    +0.000 A 
ATOM     22  C   UNL     1      39.856  11.374  44.493  0.00  0.00    +0.000 A 
ATOM     23  C   UNL     1      39.885  10.052  43.922  0.00  0.00    +0.000 A 
ATOM     24  C   UNL     1      39.616   8.904  44.748  0.00  0.00    +0.000 A 
ATOM     25 CL   UNL     1      39.652   7.271  44.042  0.00  0.00    +0.000 Cl
ATOM     26  C   UNL     1      39.317   9.077  46.147  0.00  0.00    +0.000 A 
ATOM     27  C   UNL     1      40.095  13.844  44.239  0.00  0.00    +0.000 A 
ENDBRANCH  18  21
ENDBRANCH  15  17
ENDBRANCH   1  15
TORSDOF 6
ENDMDL
MODEL 3
REMARK VINA RESULT:    -6.021     20.077     22.021
REMARK INTER + INTRA:          -9.625
REMARK INTER:                  -8.028
REMARK INTRA:                  -1.597
REMARK UNBOUND:                -1.492
REMARK  Name = 
REMARK  7 active torsions:
REMARK  status: ('A' for Active; 'I' for Inactive)
REMARK    1  A    between atoms: C_1  and  O_2
REMARK    2  A    between atoms: O_2  and  C_3
REMARK    3  A    between atoms: C_6  and  C_7
REMARK    4  A    between atoms: N_9  and  N_10
REMARK    5  A    between atoms: N_10  and  C_11
REMARK    6  A    between atoms: C_11  and  N_13
REMARK    7  A    between atoms: C_14  and  C_16
REMARK                            x       y       z     vdW  Elec       q    Type
REMARK                         _______ _______ _______ _____ _____    ______ ____
ROOT
ATOM      1  N   UNL     1      30.108  -7.085  26.444  0.00  0.00    +0.000 N 
ATOM      2  H   UNL     1      31.044  -7.090  26.040  0.00  0.00    +0.000 HD
ENDROOT
BRANCH   1   5
ATOM      3  C   UNL     1      29.000  -7.690  24.282  0.00  0.00    +0.000 C 
ATOM      4  O   UNL     1      27.980  -7.644  23.525  0.00  0.00    +0.000 OA
ATOM      5  N   UNL     1      28.969  -7.032  25.596  0.00  0.00    +0.000 N 
ATOM      6  H   UNL     1      28.130  -6.538  25.900  0.00  0.00    +0.000 HD
BRANCH   3  10
ATOM      7  C   UNL     1      33.287  -7.851  21.602  0.00  0.00    +0.000 A 
ATOM      8  C   UNL     1      32.360  -8.489  22.502  0.00  0.00    +0.000 A 
ATOM      9  C   UNL     1      31.176  -7.790  22.931  0.00  0.00    +0.000 A 
ATOM     10  C   UNL     1      30.249  -8.428  23.830  0.00  0.00    +0.000 A 
ATOM     11  C   UNL     1      30.507  -9.764  24.301  0.00  0.00    +0.000 A 
ATOM     12  C   UNL     1      34.471  -8.551  21.174  0.00  0.00    +0.000 A 
BRANCH   7  14
ATOM     13  C   UNL     1      33.554  -6.109  19.888  0.00  0.00    +0.000 C 
ATOM     14  O   UNL     1      33.033  -6.534  21.139  0.00  0.00    +0.000 OA
ENDBRANCH   7  14
ENDBRANCH   3  10
ENDBRANCH   1   5
BRANCH   1  15
ATOM     15  C   UNL     1      29.936  -7.132  27.903  0.00  0.00    +0.000 C 
ATOM     16  S   UNL     1      28.502  -7.535  28.537  0.00  0.00    +0.000 S 
BRANCH  15  17
ATOM     17  N   UNL     1      31.067  -6.810  28.786  0.00  0.00    +0.000 N 
ATOM     18  C   UNL     1      32.041  -7.852  29.141  0.00  0.00    +0.000 C 
ATOM     19  O   UNL     1      33.018  -7.574  29.905  0.00  0.00    +0.000 OA
ATOM     20  H   UNL     1      31.174  -5.865  29.152  0.00  0.00    +0.000 HD
BRANCH  18  21
ATOM     21  C   UNL     1      31.880  -9.261  28.594  0.00  0.00    +0.000 A 
ATOM     22  C   UNL     1      32.603  -9.661  27.414  0.00  0.00    +0.000 A 
ATOM     23  C   UNL     1      33.476  -8.726  26.752  0.00  0.00    +0.000 A 
ATOM     24  C   UNL     1      34.198  -9.126  25.572  0.00  0.00    +0.000 A 
ATOM     25 CL   UNL     1      35.277  -7.971  24.754  0.00  0.00    +0.000 Cl
ATOM     26  C   UNL     1      34.046 -10.461  25.052  0.00  0.00    +0.000 A 
ATOM     27  C   UNL     1      31.007 -10.195  29.255  0.00  0.00    +0.000 A 
ENDBRANCH  18  21
ENDBRANCH  15  17
ENDBRANCH   1  15
TORSDOF 6
ENDMDL
MODEL 4
REMARK VINA RESULT:    -6.016      1.748      3.005
REMARK INTER + INTRA:          -9.618
REMARK INTER:                  -8.176
REMARK INTRA:                  -1.442
REMARK UNBOUND:                -1.492
REMARK  Name = 
REMARK  7 active torsions:
REMARK  status: ('A' for Active; 'I' for Inactive)
REMARK    1  A    between atoms: C_1  and  O_2
REMARK    2  A    between atoms: O_2  and  C_3
REMARK    3  A    between atoms: C_6  and  C_7
REMARK    4  A    between atoms: N_9  and  N_10
REMARK    5  A    between atoms: N_10  and  C_11
REMARK    6  A    between atoms: C_11  and  N_13
REMARK    7  A    between atoms: C_14  and  C_16
REMARK                            x       y       z     vdW  Elec       q    Type
REMARK                         _______ _______ _______ _____ _____    ______ ____
ROOT
ATOM      1  N   UNL     1      11.777   3.349  28.415  0.00  0.00    +0.000 N 
ATOM      2  H   UNL     1      11.806   2.337  28.289  0.00  0.00    +0.000 HD
ENDROOT
BRANCH   1   5
ATOM      3  C   UNL     1       9.797   3.521  26.894  0.00  0.00    +0.000 C 
ATOM      4  O   UNL     1       8.805   4.188  26.460  0.00  0.00    +0.000 OA
ATOM      5  N   UNL     1      10.670   4.094  27.929  0.00  0.00    +0.000 N 
ATOM      6  H   UNL     1      10.481   5.026  28.298  0.00  0.00    +0.000 HD
BRANCH   3  10
ATOM      7  C   UNL     1       9.117  -1.489  27.042  0.00  0.00    +0.000 A 
ATOM      8  C   UNL     1       9.731  -0.336  26.433  0.00  0.00    +0.000 A 
ATOM      9  C   UNL     1       9.465   0.980  26.953  0.00  0.00    +0.000 A 
ATOM     10  C   UNL     1      10.078   2.132  26.345  0.00  0.00    +0.000 A 
ATOM     11  C   UNL     1      10.958   1.969  25.217  0.00  0.00    +0.000 A 
ATOM     12  C   UNL     1       9.384  -2.805  26.522  0.00  0.00    +0.000 A 
BRANCH   7  14
ATOM     13  C   UNL     1       6.852  -1.523  27.998  0.00  0.00    +0.000 C 
ATOM     14  O   UNL     1       8.250  -1.327  28.154  0.00  0.00    +0.000 OA
ENDBRANCH   7  14
ENDBRANCH   3  10
ENDBRANCH   1   5
BRANCH   1  15
ATOM     15  C   UNL     1      12.883   4.036  29.098  0.00  0.00    +0.000 C 
ATOM     16  S   UNL     1      12.983   5.652  29.052  0.00  0.00    +0.000 S 
BRANCH  15  17
ATOM     17  N   UNL     1      13.899   3.256  29.821  0.00  0.00    +0.000 N 
ATOM     18  C   UNL     1      15.027   2.662  29.089  0.00  0.00    +0.000 C 
ATOM     19  O   UNL     1      15.904   1.989  29.714  0.00  0.00    +0.000 OA
ATOM     20  H   UNL     1      13.819   3.127  30.828  0.00  0.00    +0.000 HD
BRANCH  18  21
ATOM     21  C   UNL     1      15.144   2.856  27.586  0.00  0.00    +0.000 A 
ATOM     22  C   UNL     1      14.676   1.830  26.690  0.00  0.00    +0.000 A 
ATOM     23  C   UNL     1      14.098   0.621  27.218  0.00  0.00    +0.000 A 
ATOM     24  C   UNL     1      13.630  -0.405  26.322  0.00  0.00    +0.000 A 
ATOM     25 CL   UNL     1      12.916  -1.899  26.974  0.00  0.00    +0.000 Cl
ATOM     26  C   UNL     1      13.741  -0.222  24.897  0.00  0.00    +0.000 A 
ATOM     27  C   UNL     1      15.723   4.064  27.059  0.00  0.00    +0.000 A 
ENDBRANCH  18  21
ENDBRANCH  15  17
ENDBRANCH   1  15
TORSDOF 6
ENDMDL
MODEL 5
REMARK VINA RESULT:    -5.971      3.054      4.805
REMARK INTER + INTRA:          -9.558
REMARK INTER:                  -8.976
REMARK INTRA:                  -0.582
REMARK UNBOUND:                -1.492
REMARK  Name = 
REMARK  7 active torsions:
REMARK  status: ('A' for Active; 'I' for Inactive)
REMARK    1  A    between atoms: C_1  and  O_2
REMARK    2  A    between atoms: O_2  and  C_3
REMARK    3  A    between atoms: C_6  and  C_7
REMARK    4  A    between atoms: N_9  and  N_10
REMARK    5  A    between atoms: N_10  and  C_11
REMARK    6  A    between atoms: C_11  and  N_13
REMARK    7  A    between atoms: C_14  and  C_16
REMARK                            x       y       z     vdW  Elec       q    Type
REMARK                         _______ _______ _______ _____ _____    ______ ____
ROOT
ATOM      1  N   UNL     1      12.709   5.384  28.177  0.00  0.00    +0.000 N 
ATOM      2  H   UNL     1      12.739   5.687  27.204  0.00  0.00    +0.000 HD
ENDROOT
BRANCH   1   5
ATOM      3  C   UNL     1      11.634   6.642  30.054  0.00  0.00    +0.000 C 
ATOM      4  O   UNL     1      11.722   7.497  30.991  0.00  0.00    +0.000 OA
ATOM      5  N   UNL     1      12.807   6.340  29.223  0.00  0.00    +0.000 N 
ATOM      6  H   UNL     1      13.692   6.817  29.396  0.00  0.00    +0.000 HD
BRANCH   3  10
ATOM      7  C   UNL     1       7.384   6.092  27.367  0.00  0.00    +0.000 A 
ATOM      8  C   UNL     1       8.225   5.674  28.460  0.00  0.00    +0.000 A 
ATOM      9  C   UNL     1       9.475   6.348  28.704  0.00  0.00    +0.000 A 
ATOM     10  C   UNL     1      10.315   5.931  29.796  0.00  0.00    +0.000 A 
ATOM     11  C   UNL     1       9.907   4.841  30.645  0.00  0.00    +0.000 A 
ATOM     12  C   UNL     1       6.134   5.418  27.123  0.00  0.00    +0.000 A 
BRANCH   7  14
ATOM     13  C   UNL     1       6.924   8.277  26.338  0.00  0.00    +0.000 C 
ATOM     14  O   UNL     1       7.787   7.166  26.531  0.00  0.00    +0.000 OA
ENDBRANCH   7  14
ENDBRANCH   3  10
ENDBRANCH   1   5
BRANCH   1  15
ATOM     15  C   UNL     1      12.567   3.956  28.498  0.00  0.00    +0.000 C 
ATOM     16  S   UNL     1      11.503   3.046  27.685  0.00  0.00    +0.000 S 
BRANCH  15  17
ATOM     17  N   UNL     1      13.389   3.356  29.559  0.00  0.00    +0.000 N 
ATOM     18  C   UNL     1      14.740   2.863  29.251  0.00  0.00    +0.000 C 
ATOM     19  O   UNL     1      15.450   2.344  30.168  0.00  0.00    +0.000 OA
ATOM     20  H   UNL     1      13.022   3.281  30.507  0.00  0.00    +0.000 HD
BRANCH  18  21
ATOM     21  C   UNL     1      15.285   2.976  27.838  0.00  0.00    +0.000 A 
ATOM     22  C   UNL     1      15.035   1.925  26.884  0.00  0.00    +0.000 A 
ATOM     23  C   UNL     1      14.268   0.768  27.271  0.00  0.00    +0.000 A 
ATOM     24  C   UNL     1      14.018  -0.282  26.318  0.00  0.00    +0.000 A 
ATOM     25 CL   UNL     1      13.071  -1.711  26.795  0.00  0.00    +0.000 Cl
ATOM     26  C   UNL     1      14.535  -0.176  24.977  0.00  0.00    +0.000 A 
ATOM     27  C   UNL     1      16.052   4.131  27.451  0.00  0.00    +0.000 A 
ENDBRANCH  18  21
ENDBRANCH  15  17
ENDBRANCH   1  15
TORSDOF 6
ENDMDL
MODEL 6
REMARK VINA RESULT:    -5.889      2.832      5.890
REMARK INTER + INTRA:          -9.448
REMARK INTER:                  -8.107
REMARK INTRA:                  -1.340
REMARK UNBOUND:                -1.492
REMARK  Name = 
REMARK  7 active torsions:
REMARK  status: ('A' for Active; 'I' for Inactive)
REMARK    1  A    between atoms: C_1  and  O_2
REMARK    2  A    between atoms: O_2  and  C_3
REMARK    3  A    between atoms: C_6  and  C_7
REMARK    4  A    between atoms: N_9  and  N_10
REMARK    5  A    between atoms: N_10  and  C_11
REMARK    6  A    between atoms: C_11  and  N_13
REMARK    7  A    between atoms: C_14  and  C_16
REMARK                            x       y       z     vdW  Elec       q    Type
REMARK                         _______ _______ _______ _____ _____    ______ ____
ROOT
ATOM      1  N   UNL     1      10.169   1.998  24.744  0.00  0.00    +0.000 N 
ATOM      2  H   UNL     1      10.490   2.861  25.183  0.00  0.00    +0.000 HD
ENDROOT
BRANCH   1   5
ATOM      3  C   UNL     1      10.319   0.842  26.958  0.00  0.00    +0.000 C 
ATOM      4  O   UNL     1      10.144  -0.203  27.661  0.00  0.00    +0.000 OA
ATOM      5  N   UNL     1       9.976   0.831  25.529  0.00  0.00    +0.000 N 
ATOM      6  H   UNL     1       9.599  -0.015  25.101  0.00  0.00    +0.000 HD
BRANCH   3  10
ATOM      7  C   UNL     1      14.254   3.764  28.207  0.00  0.00    +0.000 A 
ATOM      8  C   UNL     1      12.832   3.530  28.204  0.00  0.00    +0.000 A 
ATOM      9  C   UNL     1      12.301   2.336  27.599  0.00  0.00    +0.000 A 
ATOM     10  C   UNL     1      10.880   2.102  27.596  0.00  0.00    +0.000 A 
ATOM     11  C   UNL     1       9.990   3.062  28.198  0.00  0.00    +0.000 A 
ATOM     12  C   UNL     1      14.786   4.958  28.812  0.00  0.00    +0.000 A 
BRANCH   7  14
ATOM     13  C   UNL     1      16.069   2.118  28.418  0.00  0.00    +0.000 C 
ATOM     14  O   UNL     1      15.130   2.817  27.614  0.00  0.00    +0.000 OA
ENDBRANCH   7  14
ENDBRANCH   3  10
ENDBRANCH   1   5
BRANCH   1  15
ATOM     15  C   UNL     1       9.908   1.963  23.298  0.00  0.00    +0.000 C 
ATOM     16  S   UNL     1       9.699   3.345  22.479  0.00  0.00    +0.000 S 
BRANCH  15  17
ATOM     17  N   UNL     1       9.836   0.673  22.595  0.00  0.00    +0.000 N 
ATOM     18  C   UNL     1      11.065   0.036  22.101  0.00  0.00    +0.000 C 
ATOM     19  O   UNL     1      11.003  -1.078  21.494  0.00  0.00    +0.000 OA
ATOM     20  H   UNL     1       8.934   0.222  22.450  0.00  0.00    +0.000 HD
BRANCH  18  21
ATOM     21  C   UNL     1      12.410   0.710  22.318  0.00  0.00    +0.000 A 
ATOM     22  C   UNL     1      13.198   0.385  23.479  0.00  0.00    +0.000 A 
ATOM     23  C   UNL     1      12.712  -0.577  24.435  0.00  0.00    +0.000 A 
ATOM     24  C   UNL     1      13.500  -0.902  25.596  0.00  0.00    +0.000 A 
ATOM     25 CL   UNL     1      12.899  -2.090  26.776  0.00  0.00    +0.000 Cl
ATOM     26  C   UNL     1      14.775  -0.264  25.802  0.00  0.00    +0.000 A 
ATOM     27  C   UNL     1      12.897   1.672  21.364  0.00  0.00    +0.000 A 
ENDBRANCH  18  21
ENDBRANCH  15  17
ENDBRANCH   1  15
TORSDOF 6
ENDMDL
MODEL 7
REMARK VINA RESULT:    -5.889      4.208      6.640
REMARK INTER + INTRA:          -9.447
REMARK INTER:                  -8.818
REMARK INTRA:                  -0.629
REMARK UNBOUND:                -1.492
REMARK  Name = 
REMARK  7 active torsions:
REMARK  status: ('A' for Active; 'I' for Inactive)
REMARK    1  A    between atoms: C_1  and  O_2
REMARK    2  A    between atoms: O_2  and  C_3
REMARK    3  A    between atoms: C_6  and  C_7
REMARK    4  A    between atoms: N_9  and  N_10
REMARK    5  A    between atoms: N_10  and  C_11
REMARK    6  A    between atoms: C_11  and  N_13
REMARK    7  A    between atoms: C_14  and  C_16
REMARK                            x       y       z     vdW  Elec       q    Type
REMARK                         _______ _______ _______ _____ _____    ______ ____
ROOT
ATOM      1  N   UNL     1      13.342   6.022  28.532  0.00  0.00    +0.000 N 
ATOM      2  H   UNL     1      12.837   6.584  27.847  0.00  0.00    +0.000 HD
ENDROOT
BRANCH   1   5
ATOM      3  C   UNL     1      14.370   7.844  29.906  0.00  0.00    +0.000 C 
ATOM      4  O   UNL     1      15.385   8.326  30.501  0.00  0.00    +0.000 OA
ATOM      5  N   UNL     1      14.476   6.562  29.195  0.00  0.00    +0.000 N 
ATOM      6  H   UNL     1      15.364   6.060  29.178  0.00  0.00    +0.000 HD
BRANCH   3  10
ATOM      7  C   UNL     1      10.983  10.874  27.685  0.00  0.00    +0.000 A 
ATOM      8  C   UNL     1      11.388  10.087  28.822  0.00  0.00    +0.000 A 
ATOM      9  C   UNL     1      12.642   9.378  28.796  0.00  0.00    +0.000 A 
ATOM     10  C   UNL     1      13.047   8.592  29.933  0.00  0.00    +0.000 A 
ATOM     11  C   UNL     1      12.199   8.514  31.095  0.00  0.00    +0.000 A 
ATOM     12  C   UNL     1       9.730  11.582  27.710  0.00  0.00    +0.000 A 
BRANCH   7  14
ATOM     13  C   UNL     1      12.507  12.156  26.242  0.00  0.00    +0.000 C 
ATOM     14  O   UNL     1      11.819  10.949  26.540  0.00  0.00    +0.000 OA
ENDBRANCH   7  14
ENDBRANCH   3  10
ENDBRANCH   1   5
BRANCH   1  15
ATOM     15  C   UNL     1      12.899   4.653  28.832  0.00  0.00    +0.000 C 
ATOM     16  S   UNL     1      11.522   4.090  28.191  0.00  0.00    +0.000 S 
BRANCH  15  17
ATOM     17  N   UNL     1      13.704   3.796  29.714  0.00  0.00    +0.000 N 
ATOM     18  C   UNL     1      14.874   3.085  29.179  0.00  0.00    +0.000 C 
ATOM     19  O   UNL     1      15.570   2.345  29.942  0.00  0.00    +0.000 OA
ATOM     20  H   UNL     1      13.450   3.695  30.696  0.00  0.00    +0.000 HD
BRANCH  18  21
ATOM     21  C   UNL     1      15.252   3.237  27.715  0.00  0.00    +0.000 A 
ATOM     22  C   UNL     1      14.720   2.324  26.737  0.00  0.00    +0.000 A 
ATOM     23  C   UNL     1      13.832   1.266  27.146  0.00  0.00    +0.000 A 
ATOM     24  C   UNL     1      13.301   0.352  26.167  0.00  0.00    +0.000 A 
ATOM     25 CL   UNL     1      12.204  -0.955  26.672  0.00  0.00    +0.000 Cl
ATOM     26  C   UNL     1      13.658   0.496  24.779  0.00  0.00    +0.000 A 
ATOM     27  C   UNL     1      16.140   4.294  27.306  0.00  0.00    +0.000 A 
ENDBRANCH  18  21
ENDBRANCH  15  17
ENDBRANCH   1  15
TORSDOF 6
ENDMDL
MODEL 8
REMARK VINA RESULT:    -5.885     18.203     20.619
REMARK INTER + INTRA:          -9.442
REMARK INTER:                  -8.125
REMARK INTRA:                  -1.317
REMARK UNBOUND:                -1.492
REMARK  Name = 
REMARK  7 active torsions:
REMARK  status: ('A' for Active; 'I' for Inactive)
REMARK    1  A    between atoms: C_1  and  O_2
REMARK    2  A    between atoms: O_2  and  C_3
REMARK    3  A    between atoms: C_6  and  C_7
REMARK    4  A    between atoms: N_9  and  N_10
REMARK    5  A    between atoms: N_10  and  C_11
REMARK    6  A    between atoms: C_11  and  N_13
REMARK    7  A    between atoms: C_14  and  C_16
REMARK                            x       y       z     vdW  Elec       q    Type
REMARK                         _______ _______ _______ _____ _____    ______ ____
ROOT
ATOM      1  N   UNL     1      28.434  -9.284  31.116  0.00  0.00    +0.000 N 
ATOM      2  H   UNL     1      28.343  -9.506  30.125  0.00  0.00    +0.000 HD
ENDROOT
BRANCH   1   5
ATOM      3  C   UNL     1      30.890  -8.844  30.922  0.00  0.00    +0.000 C 
ATOM      4  O   UNL     1      32.040  -8.800  31.462  0.00  0.00    +0.000 OA
ATOM      5  N   UNL     1      29.719  -9.237  31.719  0.00  0.00    +0.000 N 
ATOM      6  H   UNL     1      29.828  -9.475  32.704  0.00  0.00    +0.000 HD
BRANCH   3  10
ATOM      7  C   UNL     1      31.576  -9.928  26.029  0.00  0.00    +0.000 A 
ATOM      8  C   UNL     1      31.073  -9.039  27.046  0.00  0.00    +0.000 A 
ATOM      9  C   UNL     1      31.228  -9.377  28.438  0.00  0.00    +0.000 A 
ATOM     10  C   UNL     1      30.726  -8.488  29.454  0.00  0.00    +0.000 A 
ATOM     11  C   UNL     1      30.069  -7.262  29.079  0.00  0.00    +0.000 A 
ATOM     12  C   UNL     1      31.421  -9.591  24.638  0.00  0.00    +0.000 A 
BRANCH   7  14
ATOM     13  C   UNL     1      33.631 -11.260  26.257  0.00  0.00    +0.000 C 
ATOM     14  O   UNL     1      32.223 -11.136  26.400  0.00  0.00    +0.000 OA
ENDBRANCH   7  14
ENDBRANCH   3  10
ENDBRANCH   1   5
BRANCH   1  15
ATOM     15  C   UNL     1      27.234  -9.015  31.921  0.00  0.00    +0.000 C 
ATOM     16  S   UNL     1      27.011  -9.790  33.326  0.00  0.00    +0.000 S 
BRANCH  15  17
ATOM     17  N   UNL     1      26.234  -8.045  31.450  0.00  0.00    +0.000 N 
ATOM     18  C   UNL     1      25.357  -8.383  30.320  0.00  0.00    +0.000 C 
ATOM     19  O   UNL     1      24.494  -7.544  29.914  0.00  0.00    +0.000 OA
ATOM     20  H   UNL     1      26.152  -7.137  31.907  0.00  0.00    +0.000 HD
BRANCH  18  21
ATOM     21  C   UNL     1      25.482  -9.736  29.640  0.00  0.00    +0.000 A 
ATOM     22  C   UNL     1      26.201  -9.853  28.398  0.00  0.00    +0.000 A 
ATOM     23  C   UNL     1      26.801  -8.688  27.800  0.00  0.00    +0.000 A 
ATOM     24  C   UNL     1      27.519  -8.806  26.557  0.00  0.00    +0.000 A 
ATOM     25 CL   UNL     1      28.260  -7.366  25.818  0.00  0.00    +0.000 Cl
ATOM     26  C   UNL     1      27.638 -10.088  25.912  0.00  0.00    +0.000 A 
ATOM     27  C   UNL     1      24.882 -10.901  30.238  0.00  0.00    +0.000 A 
ENDBRANCH  18  21
ENDBRANCH  15  17
ENDBRANCH   1  15
TORSDOF 6
ENDMDL
MODEL 9
REMARK VINA RESULT:    -5.843      3.509      4.927
REMARK INTER + INTRA:          -9.385
REMARK INTER:                  -8.763
REMARK INTRA:                  -0.622
REMARK UNBOUND:                -1.492
REMARK  Name = 
REMARK  7 active torsions:
REMARK  status: ('A' for Active; 'I' for Inactive)
REMARK    1  A    between atoms: C_1  and  O_2
REMARK    2  A    between atoms: O_2  and  C_3
REMARK    3  A    between atoms: C_6  and  C_7
REMARK    4  A    between atoms: N_9  and  N_10
REMARK    5  A    between atoms: N_10  and  C_11
REMARK    6  A    between atoms: C_11  and  N_13
REMARK    7  A    between atoms: C_14  and  C_16
REMARK                            x       y       z     vdW  Elec       q    Type
REMARK                         _______ _______ _______ _____ _____    ______ ____
ROOT
ATOM      1  N   UNL     1      11.484   3.563  28.670  0.00  0.00    +0.000 N 
ATOM      2  H   UNL     1      12.025   2.717  28.492  0.00  0.00    +0.000 HD
ENDROOT
BRANCH   1   5
ATOM      3  C   UNL     1       9.973   3.224  26.704  0.00  0.00    +0.000 C 
ATOM      4  O   UNL     1       9.242   3.717  25.788  0.00  0.00    +0.000 OA
ATOM      5  N   UNL     1      10.669   4.113  27.645  0.00  0.00    +0.000 N 
ATOM      6  H   UNL     1      10.565   5.125  27.563  0.00  0.00    +0.000 HD
BRANCH   3  10
ATOM      7  C   UNL     1      12.749  -0.973  26.187  0.00  0.00    +0.000 A 
ATOM      8  C   UNL     1      11.509  -0.342  26.565  0.00  0.00    +0.000 A 
ATOM      9  C   UNL     1      11.365   1.087  26.449  0.00  0.00    +0.000 A 
ATOM     10  C   UNL     1      10.126   1.717  26.826  0.00  0.00    +0.000 A 
ATOM     11  C   UNL     1       9.033   0.920  27.319  0.00  0.00    +0.000 A 
ATOM     12  C   UNL     1      12.893  -2.401  26.302  0.00  0.00    +0.000 A 
BRANCH   7  14
ATOM     13  C   UNL     1      14.886   0.181  26.573  0.00  0.00    +0.000 C 
ATOM     14  O   UNL     1      13.826  -0.187  25.701  0.00  0.00    +0.000 OA
ENDBRANCH   7  14
ENDBRANCH   3  10
ENDBRANCH   1   5
BRANCH   1  15
ATOM     15  C   UNL     1      11.550   4.215  29.986  0.00  0.00    +0.000 C 
ATOM     16  S   UNL     1      10.570   5.460  30.323  0.00  0.00    +0.000 S 
BRANCH  15  17
ATOM     17  N   UNL     1      12.507   3.738  30.995  0.00  0.00    +0.000 N 
ATOM     18  C   UNL     1      13.917   4.145  30.921  0.00  0.00    +0.000 C 
ATOM     19  O   UNL     1      14.744   3.732  31.793  0.00  0.00    +0.000 OA
ATOM     20  H   UNL     1      12.192   3.124  31.746  0.00  0.00    +0.000 HD
BRANCH  18  21
ATOM     21  C   UNL     1      14.386   5.060  29.801  0.00  0.00    +0.000 A 
ATOM     22  C   UNL     1      14.291   6.489  29.954  0.00  0.00    +0.000 A 
ATOM     23  C   UNL     1      13.752   7.051  31.166  0.00  0.00    +0.000 A 
ATOM     24  C   UNL     1      13.656   8.480  31.317  0.00  0.00    +0.000 A 
ATOM     25 CL   UNL     1      12.990   9.173  32.815  0.00  0.00    +0.000 Cl
ATOM     26  C   UNL     1      14.101   9.348  30.257  0.00  0.00    +0.000 A 
ATOM     27  C   UNL     1      14.925   4.499  28.590  0.00  0.00    +0.000 A 
ENDBRANCH  18  21
ENDBRANCH  15  17
ENDBRANCH   1  15
TORSDOF 6
ENDMDL
MODEL 10
REMARK VINA RESULT:    -5.829      3.324      6.266
REMARK INTER + INTRA:          -9.366
REMARK INTER:                  -8.691
REMARK INTRA:                  -0.675
REMARK UNBOUND:                -1.492
REMARK  Name = 
REMARK  7 active torsions:
REMARK  status: ('A' for Active; 'I' for Inactive)
REMARK    1  A    between atoms: C_1  and  O_2
REMARK    2  A    between atoms: O_2  and  C_3
REMARK    3  A    between atoms: C_6  and  C_7
REMARK    4  A    between atoms: N_9  and  N_10
REMARK    5  A    between atoms: N_10  and  C_11
REMARK    6  A    between atoms: C_11  and  N_13
REMARK    7  A    between atoms: C_14  and  C_16
REMARK                            x       y       z     vdW  Elec       q    Type
REMARK                         _______ _______ _______ _____ _____    ______ ____
ROOT
ATOM      1  N   UNL     1      11.154   2.435  27.288  0.00  0.00    +0.000 N 
ATOM      2  H   UNL     1      12.067   2.873  27.407  0.00  0.00    +0.000 HD
ENDROOT
BRANCH   1   5
ATOM      3  C   UNL     1      10.257   3.845  29.150  0.00  0.00    +0.000 C 
ATOM      4  O   UNL     1       9.272   4.227  29.858  0.00  0.00    +0.000 OA
ATOM      5  N   UNL     1      10.054   2.860  28.079  0.00  0.00    +0.000 N 
ATOM      6  H   UNL     1       9.123   2.482  27.903  0.00  0.00    +0.000 HD
BRANCH   3  10
ATOM      7  C   UNL     1      13.371   7.795  29.694  0.00  0.00    +0.000 A 
ATOM      8  C   UNL     1      13.165   6.369  29.677  0.00  0.00    +0.000 A 
ATOM      9  C   UNL     1      11.850   5.835  29.429  0.00  0.00    +0.000 A 
ATOM     10  C   UNL     1      11.644   4.409  29.412  0.00  0.00    +0.000 A 
ATOM     11  C   UNL     1      12.752   3.518  29.642  0.00  0.00    +0.000 A 
ATOM     12  C   UNL     1      14.685   8.329  29.941  0.00  0.00    +0.000 A 
BRANCH   7  14
ATOM     13  C   UNL     1      12.420   9.766  28.572  0.00  0.00    +0.000 C 
ATOM     14  O   UNL     1      12.278   8.672  29.467  0.00  0.00    +0.000 OA
ENDBRANCH   7  14
ENDBRANCH   3  10
ENDBRANCH   1   5
BRANCH   1  15
ATOM     15  C   UNL     1      10.977   1.363  26.298  0.00  0.00    +0.000 C 
ATOM     16  S   UNL     1      10.009   0.107  26.630  0.00  0.00    +0.000 S 
BRANCH  15  17
ATOM     17  N   UNL     1      11.679   1.430  25.008  0.00  0.00    +0.000 N 
ATOM     18  C   UNL     1      12.953   0.721  24.827  0.00  0.00    +0.000 C 
ATOM     19  O   UNL     1      13.559   0.779  23.712  0.00  0.00    +0.000 OA
ATOM     20  H   UNL     1      11.281   1.969  24.239  0.00  0.00    +0.000 HD
BRANCH  18  21
ATOM     21  C   UNL     1      13.545  -0.083  25.973  0.00  0.00    +0.000 A 
ATOM     22  C   UNL     1      14.423   0.555  26.921  0.00  0.00    +0.000 A 
ATOM     23  C   UNL     1      14.742   1.953  26.780  0.00  0.00    +0.000 A 
ATOM     24  C   UNL     1      15.621   2.589  27.727  0.00  0.00    +0.000 A 
ATOM     25 CL   UNL     1      16.015   4.316  27.554  0.00  0.00    +0.000 Cl
ATOM     26  C   UNL     1      16.182   1.829  28.814  0.00  0.00    +0.000 A 
ATOM     27  C   UNL     1      13.227  -1.480  26.113  0.00  0.00    +0.000 A 
ENDBRANCH  18  21
ENDBRANCH  15  17
ENDBRANCH   1  15
TORSDOF 6
ENDMDL
