REMARK  Name = 
REMARK  7 active torsions:
REMARK  status: ('A' for Active; 'I' for Inactive)
REMARK    1  A    between atoms: C_1  and  O_2
REMARK    2  A    between atoms: O_2  and  C_3
REMARK    3  A    between atoms: C_6  and  C_7
REMARK    4  A    between atoms: C_7  and  C_9
REMARK    5  A    between atoms: C_9  and  C_10
REMARK    6  A    between atoms: C_19  and  O_20
REMARK    7  A    between atoms: O_20  and  C_21
REMARK                            x       y       z     vdW  Elec       q    Type
REMARK                         _______ _______ _______ _____ _____    ______ ____
ROOT
ATOM      1  C   UNL     1      -1.744  -5.877  -0.893  0.00  0.00    +0.000 C 
ATOM      2  O   UNL     1      -2.167  -7.009  -1.286  0.00  0.00    +0.000 OA
ENDROOT
BRANCH   1   6
ATOM      3  C   UNL     1       0.918  -1.669  -1.781  0.00  0.00    +0.000 A 
ATOM      4  C   UNL     1       0.438  -2.951  -2.227  0.00  0.00    +0.000 A 
ATOM      5  C   UNL     1      -0.390  -3.751  -1.361  0.00  0.00    +0.000 A 
ATOM      6  C   UNL     1      -0.870  -5.033  -1.807  0.00  0.00    +0.000 A 
ATOM      7  C   UNL     1      -0.522  -5.517  -3.118  0.00  0.00    +0.000 A 
ATOM      8  C   UNL     1       1.746  -0.869  -2.647  0.00  0.00    +0.000 A 
BRANCH   3  10
ATOM      9  C   UNL     1       1.049   0.072  -0.049  0.00  0.00    +0.000 C 
ATOM     10  O   UNL     1       0.575  -1.192  -0.488  0.00  0.00    +0.000 OA
ENDBRANCH   3  10
BRANCH   8  11
ATOM     11  O   UNL     1       2.220   0.395  -2.208  0.00  0.00    +0.000 OA
ATOM     12  C   UNL     1       3.036   1.183  -3.061  0.00  0.00    +0.000 C 
ENDBRANCH   8  11
ENDBRANCH   1   6
BRANCH   1  13
ATOM     13  C   UNL     1      -2.111  -5.367   0.491  0.00  0.00    +0.000 C 
BRANCH  13  14
ATOM     14  C   UNL     1      -0.844  -5.141   1.300  0.00  0.00    +0.000 A 
ATOM     15  C   UNL     1       0.050  -6.240   1.560  0.00  0.00    +0.000 A 
ATOM     16 CL   UNL     1      -0.328  -7.863   0.934  0.00  0.00    +0.000 Cl
ATOM     17  C   UNL     1       1.250  -6.026   2.327  0.00  0.00    +0.000 A 
ATOM     18  N   UNL     1       1.546  -4.756   2.817  0.00  0.00    +0.000 NA
ATOM     19  C   UNL     1       0.681  -3.694   2.566  0.00  0.00    +0.000 A 
ATOM     20  C   UNL     1      -0.538  -3.828   1.807  0.00  0.00    +0.000 A 
ATOM     21 CL   UNL     1      -1.643  -2.470   1.486  0.00  0.00    +0.000 Cl
ENDBRANCH  13  14
ENDBRANCH   1  13
TORSDOF 5
