REMARK  Name = 
REMARK  10 active torsions:
REMARK  status: ('A' for Active; 'I' for Inactive)
REMARK    1  A    between atoms: C_1  and  C_2
REMARK    2  A    between atoms: C_2  and  C_3
REMARK    3  A    between atoms: C_3  and  C_18
REMARK    4  A    between atoms: N_4  and  C_5
REMARK    5  A    between atoms: C_5  and  C_6
REMARK    6  A    between atoms: C_6  and  C_7
REMARK    7  A    between atoms: C_8  and  C_9
REMARK    8  A    between atoms: C_14  and  C_15
REMARK    9  A    between atoms: C_19  and  O_20
REMARK   10  A    between atoms: C_22  and  C_23
REMARK                            x       y       z     vdW  Elec       q    Type
REMARK                         _______ _______ _______ _____ _____    ______ ____
ROOT
ATOM      1  C   UNL     1       1.070   1.789  -1.629  0.00  0.00    +0.000 C 
ATOM      2  N   UNL     1       0.216   2.080  -2.586  0.00  0.00    +0.000 NA
ENDROOT
BRANCH   1   3
ATOM      3  C   UNL     1       2.565   1.870  -1.895  0.00  0.00    +0.000 C 
ATOM      4  C   UNL     1       3.018   2.243  -3.122  0.00  0.00    +0.000 C 
ATOM      5  C   UNL     1       4.513   2.323  -3.388  0.00  0.00    +0.000 C 
ATOM      6  C   UNL     1       5.142   3.333  -2.442  0.00  0.00    +0.000 C 
ATOM      7  C   UNL     1       6.636   3.414  -2.708  0.00  0.00    +0.000 C 
ATOM      8  C   UNL     1       3.553   1.534  -0.789  0.00  0.00    +0.000 C 
ATOM      9  O   UNL     1       3.129   1.186   0.357  0.00  0.00    +0.000 OA
BRANCH   6  10
ATOM     10  C   UNL     1       4.906   2.897  -1.005  0.00  0.00    +0.000 A 
ATOM     11  C   UNL     1       3.562   2.746  -0.510  0.00  0.00    +0.000 A 
ATOM     12  C   UNL     1       2.441   3.009  -1.376  0.00  0.00    +0.000 A 
ATOM     13  C   UNL     1       1.097   2.859  -0.881  0.00  0.00    +0.000 A 
ATOM     14  C   UNL     1      -0.023   3.122  -1.747  0.00  0.00    +0.000 A 
ATOM     15  C   UNL     1       6.026   2.634  -0.139  0.00  0.00    +0.000 A 
ENDBRANCH   6  10
BRANCH   4  16
ATOM     16  O   UNL     1       2.096   2.556  -4.155  0.00  0.00    +0.000 OA
ATOM     17  H   UNL     1       1.112   2.503  -3.980  0.00  0.00    +0.000 HD
ENDBRANCH   4  16
ENDBRANCH   1   3
BRANCH   1  19
ATOM     18  C   UNL     1       1.070  -0.023   0.067  0.00  0.00    +0.000 C 
ATOM     19  C   UNL     1       0.564   1.373  -0.258  0.00  0.00    +0.000 C 
ENDBRANCH   1  19
BRANCH   2  20
ATOM     20  C   UNL     1      -1.230   2.002  -2.329  0.00  0.00    +0.000 C 
BRANCH  20  21
ATOM     21  C   UNL     1      -1.597   0.583  -1.927  0.00  0.00    +0.000 C 
BRANCH  21  22
ATOM     22  C   UNL     1      -0.837   0.200  -0.667  0.00  0.00    +0.000 A 
ATOM     23  C   UNL     1       0.603   0.200  -0.667  0.00  0.00    +0.000 A 
ATOM     24  C   UNL     1       1.363   0.583  -1.927  0.00  0.00    +0.000 C 
ATOM     25  N   UNL     1       1.300  -0.150   0.487  0.00  0.00    +0.000 N 
ATOM     26  C   UNL     1       0.603  -0.501   1.641  0.00  0.00    +0.000 A 
ATOM     27  C   UNL     1      -0.837  -0.501   1.641  0.00  0.00    +0.000 A 
ATOM     28  C   UNL     1      -1.557  -0.138   0.448  0.00  0.00    +0.000 A 
ATOM     29  C   UNL     1      -2.997  -0.138   0.448  0.00  0.00    +0.000 A 
ATOM     30  C   UNL     1      -3.757   0.244  -0.812  0.00  0.00    +0.000 C 
ATOM     31  C   UNL     1      -3.717  -0.501   1.641  0.00  0.00    +0.000 A 
ATOM     32  C   UNL     1       1.323  -0.863   2.834  0.00  0.00    +0.000 A 
ATOM     33  H   UNL     1       2.320  -0.150   0.487  0.00  0.00    +0.000 HD
ENDBRANCH  21  22
ENDBRANCH  20  21
ENDBRANCH   2  20
TORSDOF 7
