REMARK  Name = 
REMARK  7 active torsions:
REMARK  status: ('A' for Active; 'I' for Inactive)
REMARK    1  A    between atoms: C_1  and  C_2
REMARK    2  A    between atoms: C_2  and  C_3
REMARK    3  A    between atoms: C_4  and  C_5
REMARK    4  A    between atoms: C_5  and  C_6
REMARK    5  A    between atoms: C_13  and  C_14
REMARK    6  A    between atoms: C_13  and  C_15
REMARK    7  A    between atoms: C_19  and  C_20
REMARK                            x       y       z     vdW  Elec       q    Type
REMARK                         _______ _______ _______ _____ _____    ______ ____
ROOT
ATOM      1  C   UNL     1       2.993   3.016   1.743  0.00  0.00    +0.000 A 
ATOM      2  C   UNL     1       3.887   2.832   0.629  0.00  0.00    +0.000 A 
ATOM      3  C   UNL     1       3.581   1.859  -0.387  0.00  0.00    +0.000 A 
ATOM      4  C   UNL     1       2.381   1.069  -0.289  0.00  0.00    +0.000 A 
ATOM      5  C   UNL     1       1.486   1.252   0.825  0.00  0.00    +0.000 A 
ATOM      6  C   UNL     1       4.673   2.483   4.143  0.00  0.00    +0.000 A 
ATOM      7  O   UNL     1       4.509   3.730   3.484  0.00  0.00    +0.000 OA
ATOM      8  C   UNL     1       3.266   4.053   2.877  0.00  0.00    +0.000 C 
ATOM      9  C   UNL     1       3.355   5.434   2.247  0.00  0.00    +0.000 C 
ATOM     10  C   UNL     1       2.171   4.047   3.931  0.00  0.00    +0.000 C 
ATOM     11  C   UNL     1       2.943   3.026   1.805  0.00  0.00    +0.000 C 
ATOM     12  C   UNL     1       1.810   2.280   1.897  0.00  0.00    +0.000 C 
ATOM     13  O   UNL     1       2.079   0.109  -1.291  0.00  0.00    +0.000 OA
ATOM     14  C   UNL     1       0.895  -0.670  -1.195  0.00  0.00    +0.000 C 
ATOM     15  C   UNL     1      -0.316   0.248  -1.189  0.00  0.00    +0.000 C 
ATOM     16  C   UNL     1       4.524   1.665  -1.563  0.00  0.00    +0.000 C 
ATOM     17  O   UNL     1       5.583   2.362  -1.649  0.00  0.00    +0.000 OA
ENDROOT
BRANCH  14  18
ATOM     18  C   UNL     1       0.811  -1.613  -2.384  0.00  0.00    +0.000 A 
ATOM     19  C   UNL     1       1.852  -2.583  -2.604  0.00  0.00    +0.000 A 
ATOM     20  C   UNL     1       2.972  -2.655  -1.701  0.00  0.00    +0.000 A 
ATOM     21  C   UNL     1       4.013  -3.626  -1.921  0.00  0.00    +0.000 A 
ATOM     22  C   UNL     1       5.132  -3.698  -1.018  0.00  0.00    +0.000 A 
ATOM     23  C   UNL     1      -0.308  -1.540  -3.288  0.00  0.00    +0.000 A 
ENDBRANCH  14  18
BRANCH   1  24
ATOM     24  C   UNL     1       1.726   2.182   1.846  0.00  0.00    +0.000 C 
BRANCH  24  28
ATOM     25  C   UNL     1       1.030   0.003   0.095  0.00  0.00    +0.000 C 
ATOM     26  C   UNL     1       0.524   1.406  -0.198  0.00  0.00    +0.000 C 
ATOM     27  C   UNL     1      -0.350   1.659  -1.416  0.00  0.00    +0.000 C 
ATOM     28  C   UNL     1       0.852   2.435   0.629  0.00  0.00    +0.000 C 
ENDBRANCH  24  28
ENDBRANCH   1  24
TORSDOF 3
