REMARK  Name = 
REMARK  5 active torsions:
REMARK  status: ('A' for Active; 'I' for Inactive)
REMARK    1  A    between atoms: C_1  and  C_2
REMARK    2  A    between atoms: C_2  and  C_3
REMARK    3  A    between atoms: C_7  and  O_8
REMARK    4  A    between atoms: C_10  and  C_11
REMARK    5  A    between atoms: C_16  and  O_17
REMARK                            x       y       z     vdW  Elec       q    Type
REMARK                         _______ _______ _______ _____ _____    ______ ____
ROOT
ATOM      1  C   UNL     1       0.980   0.075   0.063  0.00  0.00    +0.000 C 
ATOM      2  C   UNL     1       0.473  -0.334   1.436  0.00  0.00    +0.000 C 
ATOM      3  C   UNL     1      -1.047  -0.334   1.436  0.00  0.00    +0.000 C 
ATOM      4  C   UNL     1       0.980  -1.728   1.769  0.00  0.00    +0.000 C 
ATOM      5  C   UNL     1       1.762  -2.397   0.880  0.00  0.00    +0.000 C 
ATOM      6  C   UNL     1       2.268  -3.791   1.213  0.00  0.00    +0.000 A 
ATOM      7  C   UNL     1       1.920  -4.403   2.469  0.00  0.00    +0.000 A 
ATOM      8  C   UNL     1       2.400  -5.724   2.785  0.00  0.00    +0.000 A 
ATOM      9  C   UNL     1       3.228  -6.433   1.843  0.00  0.00    +0.000 A 
ATOM     10  C   UNL     1       3.576  -5.821   0.587  0.00  0.00    +0.000 A 
ATOM     11  C   UNL     1       3.096  -4.500   0.272  0.00  0.00    +0.000 A 
ATOM     12  O   UNL     1       0.946   0.586   2.409  0.00  0.00    +0.000 OA
ENDROOT
BRANCH   9  13
ATOM     13  C   UNL     1       3.735  -7.827   2.176  0.00  0.00    +0.000 A 
ATOM     14  C   UNL     1       3.387  -8.438   3.433  0.00  0.00    +0.000 A 
ATOM     15  C   UNL     1       2.559  -7.729   4.374  0.00  0.00    +0.000 A 
ATOM     16  C   UNL     1       2.079  -6.409   4.059  0.00  0.00    +0.000 A 
ATOM     17  C   UNL     1       2.427  -5.797   2.802  0.00  0.00    +0.000 A 
ATOM     18  C   UNL     1       1.947  -4.476   2.487  0.00  0.00    +0.000 A 
ATOM     19  C   UNL     1       1.119  -3.767   3.428  0.00  0.00    +0.000 A 
ATOM     20  C   UNL     1       2.211  -8.341   5.630  0.00  0.00    +0.000 A 
ATOM     21  O   UNL     1       4.509  -8.489   1.297  0.00  0.00    +0.000 OA
BRANCH  18  22
ATOM     22  O   UNL     1       2.290  -3.873   1.248  0.00  0.00    +0.000 OA
ATOM     23  H   UNL     1       2.865  -4.365   0.594  0.00  0.00    +0.000 HD
ENDBRANCH  18  22
ENDBRANCH   9  13
BRANCH   7  24
ATOM     24  O   UNL     1       1.104  -3.704   3.397  0.00  0.00    +0.000 OA
ATOM     25  H   UNL     1       0.771  -2.787   3.178  0.00  0.00    +0.000 HD
ENDBRANCH   7  24
TORSDOF 3
