REMARK  Name = 
REMARK  7 active torsions:
REMARK  status: ('A' for Active; 'I' for Inactive)
REMARK    1  A    between atoms: C_1  and  C_2
REMARK    2  A    between atoms: C_2  and  O_3
REMARK    3  A    between atoms: O_3  and  C_4
REMARK    4  A    between atoms: C_4  and  C_6
REMARK    5  A    between atoms: N_21  and  C_22
REMARK    6  A    between atoms: C_25  and  C_26
REMARK    7  A    between atoms: C_31  and  C_32
REMARK                            x       y       z     vdW  Elec       q    Type
REMARK                         _______ _______ _______ _____ _____    ______ ____
ROOT
ATOM      1  C   UNL     1       2.941  -3.186  -2.213  0.00  0.00    +0.000 C 
ATOM      2  C   UNL     1       2.184  -6.396  -5.738  0.00  0.00    +0.000 C 
ATOM      3  C   UNL     1       4.312  -6.247  -5.052  0.00  0.00    +0.000 C 
ATOM      4  O   UNL     1       4.513  -7.335  -4.162  0.00  0.00    +0.000 OA
ATOM      5  C   UNL     1       3.458  -7.763  -3.313  0.00  0.00    +0.000 A 
ATOM      6  C   UNL     1       3.662  -8.866  -2.411  0.00  0.00    +0.000 A 
ATOM      7  C   UNL     1       2.592  -9.300  -1.550  0.00  0.00    +0.000 A 
ATOM      8  C   UNL     1       2.796 -10.403  -0.647  0.00  0.00    +0.000 A 
ATOM      9 BR   UNL     1       4.530 -11.315  -0.591  0.00  0.00    +0.000 Br
ATOM     10  C   UNL     1       1.114  -7.526  -2.494  0.00  0.00    +0.000 A 
ATOM     11  C   UNL     1       2.184  -7.093  -3.355  0.00  0.00    +0.000 A 
ATOM     12  C   UNL     1       1.969  -5.928  -4.308  0.00  0.00    +0.000 C 
ATOM     13  N   UNL     1       2.924  -4.855  -3.994  0.00  0.00    +0.000 N 
ATOM     14  C   UNL     1       4.369  -5.113  -4.070  0.00  0.00    +0.000 C 
ATOM     15  O   UNL     1       5.195  -4.186  -3.799  0.00  0.00    +0.000 OA
ATOM     16  N   UNL     1       4.859  -6.444  -4.458  0.00  0.00    +0.000 N 
ATOM     17  C   UNL     1       2.941  -2.489  -4.596  0.00  0.00    +0.000 C 
ATOM     18  O   UNL     1       2.634  -1.265  -4.447  0.00  0.00    +0.000 OA
ATOM     19  C   UNL     1       2.434  -3.525  -3.605  0.00  0.00    +0.000 C 
ATOM     20  C   UNL     1       0.914  -3.525  -3.605  0.00  0.00    +0.000 C 
ENDROOT
BRANCH  16  21
ATOM     21  C   UNL     1       6.305  -6.701  -4.534  0.00  0.00    +0.000 A 
ATOM     22  C   UNL     1       6.785  -8.005  -4.915  0.00  0.00    +0.000 A 
ATOM     23  C   UNL     1       5.849  -9.055  -5.222  0.00  0.00    +0.000 A 
ATOM     24  C   UNL     1       6.329 -10.359  -5.603  0.00  0.00    +0.000 A 
ATOM     25  C   UNL     1       5.341 -11.468  -5.927  0.00  0.00    +0.000 C 
ATOM     26  C   UNL     1       7.745 -10.611  -5.677  0.00  0.00    +0.000 A 
ATOM     27  C   UNL     1       7.240  -5.651  -4.227  0.00  0.00    +0.000 A 
ENDBRANCH  16  21
BRANCH   1  28
ATOM     28  C   UNL     1       4.461  -3.186  -2.213  0.00  0.00    +0.000 C 
ATOM     29  O   UNL     1       5.096  -4.279  -2.087  0.00  0.00    +0.000 OA
BRANCH  28  30
ATOM     30  O   UNL     1       5.171  -1.964  -2.355  0.00  0.00    +0.000 OA
BRANCH  30  32
ATOM     31  C   UNL     1       7.097  -2.533  -1.039  0.00  0.00    +0.000 C 
ATOM     32  C   UNL     1       6.591  -1.964  -2.355  0.00  0.00    +0.000 C 
ENDBRANCH  30  32
ENDBRANCH  28  30
ENDBRANCH   1  28
TORSDOF 4
