REMARK  Name = 
REMARK  8 active torsions:
REMARK  status: ('A' for Active; 'I' for Inactive)
REMARK    1  A    between atoms: C_1  and  O_2
REMARK    2  A    between atoms: O_2  and  C_3
REMARK    3  A    between atoms: C_7  and  C_8
REMARK    4  A    between atoms: C_11  and  C_12
REMARK    5  A    between atoms: C_12  and  O_13
REMARK    6  A    between atoms: O_13  and  C_14
REMARK    7  A    between atoms: N_16  and  C_17
REMARK    8  A    between atoms: C_20  and  C_21
REMARK                            x       y       z     vdW  Elec       q    Type
REMARK                         _______ _______ _______ _____ _____    ______ ____
ROOT
ATOM      1  C   UNL     1      -2.158  -5.494   0.168  0.00  0.00    +0.000 A 
ATOM      2  C   UNL     1      -2.986  -6.350   0.977  0.00  0.00    +0.000 A 
ATOM      3  C   UNL     1      -3.466  -7.600   0.445  0.00  0.00    +0.000 A 
ATOM      4  C   UNL     1      -4.294  -8.456   1.254  0.00  0.00    +0.000 A 
ATOM      5  C   UNL     1      -4.642  -8.063   2.596  0.00  0.00    +0.000 A 
ATOM      6  C   UNL     1      -1.678  -4.244   0.700  0.00  0.00    +0.000 A 
ENDROOT
BRANCH   1  11
ATOM      7  C   UNL     1       0.825  -1.697  -1.802  0.00  0.00    +0.000 A 
ATOM      8  C   UNL     1       0.345  -2.946  -2.334  0.00  0.00    +0.000 A 
ATOM      9  C   UNL     1      -0.483  -3.802  -1.525  0.00  0.00    +0.000 A 
ATOM     10  C   UNL     1      -0.963  -5.052  -2.057  0.00  0.00    +0.000 A 
ATOM     11  C   UNL     1      -1.791  -5.908  -1.248  0.00  0.00    +0.000 A 
ATOM     12  C   UNL     1       1.653  -0.840  -2.612  0.00  0.00    +0.000 A 
BRANCH   7  14
ATOM     13  C   UNL     1       0.955  -0.078   0.044  0.00  0.00    +0.000 C 
ATOM     14  O   UNL     1       0.482  -1.309  -0.480  0.00  0.00    +0.000 OA
ENDBRANCH   7  14
ENDBRANCH   1  11
BRANCH   5  15
ATOM     15  C   UNL     1      -5.516  -8.967   3.450  0.00  0.00    +0.000 C 
ATOM     16  F   UNL     1      -6.691  -9.143   2.851  0.00  0.00    +0.000 F 
ATOM     17  F   UNL     1      -4.918 -10.145   3.605  0.00  0.00    +0.000 F 
ATOM     18  F   UNL     1      -5.705  -8.406   4.640  0.00  0.00    +0.000 F 
ENDBRANCH   5  15
BRANCH   4  19
ATOM     19  C   UNL     1      -4.801  -9.775   0.693  0.00  0.00    +0.000 C 
BRANCH  19  20
ATOM     20  O   UNL     1      -4.328 -10.845   1.497  0.00  0.00    +0.000 OA
BRANCH  20  21
ATOM     21  C   UNL     1      -2.908 -10.845   1.497  0.00  0.00    +0.000 C 
ATOM     22  C   UNL     1      -2.401  -9.526   2.059  0.00  0.00    +0.000 C 
ATOM     23  N   UNL     1      -2.891  -9.359   3.435  0.00  0.00    +0.000 N 
ATOM     24  C   UNL     1      -2.401 -11.018   0.075  0.00  0.00    +0.000 C 
BRANCH  23  25
ATOM     25  C   UNL     1      -4.336  -9.327   3.701  0.00  0.00    +0.000 C 
ATOM     26  N   UNL     1      -5.576  -9.299   3.930  0.00  0.00    +0.000 NA
ENDBRANCH  23  25
ENDBRANCH  20  21
ENDBRANCH  19  20
ENDBRANCH   4  19
TORSDOF 7
