REMARK  Name = 
REMARK  5 active torsions:
REMARK  status: ('A' for Active; 'I' for Inactive)
REMARK    1  A    between atoms: C_1  and  O_2
REMARK    2  A    between atoms: O_2  and  C_3
REMARK    3  A    between atoms: C_5  and  O_6
REMARK    4  A    between atoms: O_6  and  C_7
REMARK    5  A    between atoms: C_9  and  C_10
REMARK                            x       y       z     vdW  Elec       q    Type
REMARK                         _______ _______ _______ _____ _____    ______ ____
ROOT
ATOM      1  C   UNL     1       0.604   0.077   1.303  0.00  0.00    +0.000 A 
ATOM      2  C   UNL     1       1.084   0.047  -0.054  0.00  0.00    +0.000 A 
ATOM      3  C   UNL     1       0.736   1.107  -0.965  0.00  0.00    +0.000 A 
ATOM      4  O   UNL     1       1.160   1.081  -2.163  0.00  0.00    +0.000 OA
ATOM      5  C   UNL     1      -0.092   2.198  -0.518  0.00  0.00    +0.000 A 
ATOM      6  C   UNL     1      -0.440   3.258  -1.428  0.00  0.00    +0.000 A 
ATOM      7  C   UNL     1       0.040   3.228  -2.786  0.00  0.00    +0.000 A 
ATOM      8  C   UNL     1      -0.308   4.288  -3.696  0.00  0.00    +0.000 A 
ATOM      9  O   UNL     1      -1.081   5.307  -3.278  0.00  0.00    +0.000 OA
ATOM     10  C   UNL     1      -1.406   6.298  -4.129  0.00  0.00    +0.000 A 
ATOM     11  C   UNL     1      -0.926   6.268  -5.486  0.00  0.00    +0.000 A 
ATOM     12  C   UNL     1       0.172   4.258  -5.053  0.00  0.00    +0.000 A 
ATOM     13  C   UNL     1      -0.572   2.228   0.840  0.00  0.00    +0.000 A 
ATOM     14  O   UNL     1       0.929  -0.913   2.154  0.00  0.00    +0.000 OA
ENDROOT
BRANCH   1  19
ATOM     15  C   UNL     1       0.906  -0.923   2.238  0.00  0.00    +0.000 A 
ATOM     16  C   UNL     1       0.426  -0.893   3.596  0.00  0.00    +0.000 A 
ATOM     17  C   UNL     1      -0.402   0.198   4.043  0.00  0.00    +0.000 A 
ATOM     18  C   UNL     1      -0.750   1.258   3.133  0.00  0.00    +0.000 A 
ATOM     19  C   UNL     1      -0.270   1.228   1.775  0.00  0.00    +0.000 A 
ATOM     20  C   UNL     1       1.734  -2.013   1.791  0.00  0.00    +0.000 A 
BRANCH  15  22
ATOM     21  C   UNL     1       1.036   0.093   0.002  0.00  0.00    +0.000 C 
ATOM     22  O   UNL     1       0.563   0.123   1.341  0.00  0.00    +0.000 OA
ENDBRANCH  15  22
BRANCH  17  23
ATOM     23  O   UNL     1      -0.875   0.227   5.382  0.00  0.00    +0.000 OA
ATOM     24  C   UNL     1      -0.532  -0.818   6.279  0.00  0.00    +0.000 C 
ENDBRANCH  17  23
ENDBRANCH   1  19
TORSDOF 3
