REMARK  Name = 
REMARK  6 active torsions:
REMARK  status: ('A' for Active; 'I' for Inactive)
REMARK    1  A    between atoms: C_1  and  C_2
REMARK    2  A    between atoms: C_5  and  C_6
REMARK    3  A    between atoms: N_8  and  N_9
REMARK    4  A    between atoms: N_9  and  C_10
REMARK    5  A    between atoms: C_10  and  N_12
REMARK    6  A    between atoms: C_13  and  C_15
REMARK                            x       y       z     vdW  Elec       q    Type
REMARK                         _______ _______ _______ _____ _____    ______ ____
ROOT
ATOM      1  N   UNL     1       2.940  -3.191  -0.903  0.00  0.00    +0.000 N 
ATOM      2  H   UNL     1       2.353  -2.545  -0.374  0.00  0.00    +0.000 HD
ENDROOT
BRANCH   1   5
ATOM      3  C   UNL     1       2.793  -4.828   0.984  0.00  0.00    +0.000 C 
ATOM      4  O   UNL     1       3.100  -5.958   1.479  0.00  0.00    +0.000 OA
ATOM      5  N   UNL     1       3.283  -4.453  -0.350  0.00  0.00    +0.000 N 
ATOM      6  H   UNL     1       3.869  -5.099  -0.878  0.00  0.00    +0.000 HD
BRANCH   3  11
ATOM      7  C   UNL     1       0.902  -0.005   0.017  0.00  0.00    +0.000 C 
ATOM      8  C   UNL     1       0.395  -0.394   1.397  0.00  0.00    +0.000 A 
ATOM      9  C   UNL     1       0.743  -1.674   1.957  0.00  0.00    +0.000 A 
ATOM     10  C   UNL     1       1.571  -2.586   1.211  0.00  0.00    +0.000 A 
ATOM     11  C   UNL     1       1.919  -3.866   1.772  0.00  0.00    +0.000 A 
ATOM     12  C   UNL     1       1.439  -4.234   3.079  0.00  0.00    +0.000 A 
ATOM     13  C   UNL     1      -0.433   0.518   2.143  0.00  0.00    +0.000 A 
ENDBRANCH   3  11
ENDBRANCH   1   5
BRANCH   1  14
ATOM     14  C   UNL     1       3.430  -2.815  -2.237  0.00  0.00    +0.000 C 
ATOM     15  S   UNL     1       3.038  -1.375  -2.867  0.00  0.00    +0.000 S 
BRANCH  14  16
ATOM     16  N   UNL     1       4.275  -3.746  -2.998  0.00  0.00    +0.000 N 
ATOM     17  C   UNL     1       4.630  -5.052  -2.426  0.00  0.00    +0.000 C 
ATOM     18  O   UNL     1       5.361  -5.857  -3.084  0.00  0.00    +0.000 OA
ATOM     19  H   UNL     1       4.615  -3.485  -3.924  0.00  0.00    +0.000 HD
BRANCH  17  20
ATOM     20  C   UNL     1       4.123  -5.441  -1.047  0.00  0.00    +0.000 A 
ATOM     21  C   UNL     1       4.471  -6.721  -0.486  0.00  0.00    +0.000 A 
ATOM     22  C   UNL     1       5.299  -7.633  -1.232  0.00  0.00    +0.000 A 
ATOM     23  C   UNL     1       5.647  -8.913  -0.671  0.00  0.00    +0.000 A 
ATOM     24 CL   UNL     1       6.670 -10.040  -1.594  0.00  0.00    +0.000 Cl
ATOM     25  C   UNL     1       5.167  -9.281   0.636  0.00  0.00    +0.000 A 
ATOM     26  C   UNL     1       3.295  -4.529  -0.300  0.00  0.00    +0.000 A 
ENDBRANCH  17  20
ENDBRANCH  14  16
ENDBRANCH   1  14
TORSDOF 5
