REMARK  Name = 
REMARK  4 active torsions:
REMARK  status: ('A' for Active; 'I' for Inactive)
REMARK    1  A    between atoms: C_2  and  C_28
REMARK    2  A    between atoms: N_3  and  C_4
REMARK    3  A    between atoms: C_6  and  N_7
REMARK    4  A    between atoms: N_7  and  C_8
REMARK                            x       y       z     vdW  Elec       q    Type
REMARK                         _______ _______ _______ _____ _____    ______ ____
ROOT
ATOM      1  N   UNL     1       5.255   2.412   0.200  0.00  0.00    +0.000 N 
ATOM      2  H   UNL     1       6.275   2.412   0.200  0.00  0.00    +0.000 HD
ENDROOT
BRANCH   1   3
ATOM      3  C   UNL     1       4.520   3.679   0.331  0.00  0.00    +0.000 A 
ATOM      4  C   UNL     1       3.080   3.679   0.331  0.00  0.00    +0.000 A 
ATOM      5  C   UNL     1       2.360   2.438   0.202  0.00  0.00    +0.000 A 
ATOM      6  C   UNL     1       0.919   2.438   0.202  0.00  0.00    +0.000 A 
ATOM      7  C   UNL     1       0.199   3.679   0.331  0.00  0.00    +0.000 A 
ATOM      8  C   UNL     1       5.240   4.919   0.459  0.00  0.00    +0.000 A 
ATOM      9  O   UNL     1      -1.221   3.679   0.331  0.00  0.00    +0.000 OA
ATOM     10  C   UNL     1      -1.931   4.902   0.458  0.00  0.00    +0.000 C 
ATOM     11  C   UNL     1      -1.563   5.567   1.774  0.00  0.00    +0.000 A 
ATOM     12  C   UNL     1      -1.816   4.887   3.019  0.00  0.00    +0.000 A 
ATOM     13  C   UNL     1      -2.416   3.578   3.016  0.00  0.00    +0.000 A 
ATOM     14  C   UNL     1      -2.668   2.899   4.261  0.00  0.00    +0.000 A 
ATOM     15  C   UNL     1      -3.268   1.590   4.258  0.00  0.00    +0.000 A 
ATOM     16  C   UNL     1      -0.963   6.876   1.777  0.00  0.00    +0.000 A 
ATOM     17  C   UNL     1       0.159   1.129   0.067  0.00  0.00    +0.000 C 
ATOM     18  O   UNL     1       0.795   0.034  -0.047  0.00  0.00    +0.000 OA
ENDBRANCH   1   3
BRANCH   1  21
ATOM     19  C   UNL     1       4.520  -1.335  -0.189  0.00  0.00    +0.000 A 
ATOM     20  C   UNL     1       5.240  -0.095  -0.060  0.00  0.00    +0.000 A 
ATOM     21  C   UNL     1       4.520   1.146   0.068  0.00  0.00    +0.000 A 
ATOM     22  C   UNL     1       3.080   1.146   0.068  0.00  0.00    +0.000 A 
ATOM     23  C   UNL     1       2.360  -0.095  -0.060  0.00  0.00    +0.000 A 
ATOM     24  C   UNL     1       5.240  -2.576  -0.317  0.00  0.00    +0.000 A 
ATOM     25  F   UNL     1       4.575  -3.722  -0.436  0.00  0.00    +0.000 F 
BRANCH  19  28
ATOM     26  O   UNL     1       1.044  -0.069  -0.057  0.00  0.00    +0.000 OA
ATOM     27  C   UNL     1       2.315  -0.069  -0.057  0.00  0.00    +0.000 C 
ATOM     28  N   UNL     1       3.050  -1.335  -0.189  0.00  0.00    +0.000 N 
ATOM     29  H   UNL     1       2.540  -2.214  -0.280  0.00  0.00    +0.000 HD
BRANCH  27  30
ATOM     30  C   UNL     1       3.075   1.240   0.078  0.00  0.00    +0.000 A 
ATOM     31  C   UNL     1       4.515   1.240   0.078  0.00  0.00    +0.000 A 
ATOM     32  C   UNL     1       5.235  -0.000  -0.050  0.00  0.00    +0.000 A 
ATOM     33  C   UNL     1       6.675  -0.000  -0.050  0.00  0.00    +0.000 A 
ATOM     34  C   UNL     1       7.396  -1.241  -0.179  0.00  0.00    +0.000 A 
ATOM     35  C   UNL     1       2.355   2.481   0.207  0.00  0.00    +0.000 A 
ENDBRANCH  27  30
ENDBRANCH  19  28
ENDBRANCH   1  21
TORSDOF 4
