REMARK  Name = 
REMARK  4 active torsions:
REMARK  status: ('A' for Active; 'I' for Inactive)
REMARK    1  A    between atoms: C_1  and  O_2
REMARK    2  A    between atoms: O_2  and  C_3
REMARK    3  A    between atoms: C_6  and  C_7
REMARK    4  A    between atoms: C_10  and  C_11
REMARK                            x       y       z     vdW  Elec       q    Type
REMARK                         _______ _______ _______ _____ _____    ______ ____
ROOT
ATOM      1  C   UNL     1      -1.749   4.340   4.138  0.00  0.00    +0.000 C 
ATOM      2  C   UNL     1      -2.202   5.065   5.196  0.00  0.00    +0.000 C 
ATOM      3  S   UNL     1      -1.765   4.575   6.882  0.00  0.00    +0.000 S 
ATOM      4  C   UNL     1      -2.514   5.729   8.059  0.00  0.00    +0.000 C 
ATOM      5  N   UNL     1      -2.328   5.565   9.351  0.00  0.00    +0.000 NA
ATOM      6  C   UNL     1      -3.076   6.286   4.961  0.00  0.00    +0.000 C 
ATOM      7  O   UNL     1      -3.383   6.630   3.777  0.00  0.00    +0.000 OA
ENDROOT
BRANCH   4   8
ATOM      8  C   UNL     1      -3.359   6.888   7.554  0.00  0.00    +0.000 A 
ATOM      9  C   UNL     1      -3.563   7.068   6.140  0.00  0.00    +0.000 A 
ATOM     10  C   UNL     1      -2.967   6.150   5.204  0.00  0.00    +0.000 A 
ATOM     11  C   UNL     1      -3.171   6.329   3.789  0.00  0.00    +0.000 A 
ATOM     12  C   UNL     1      -2.575   5.412   2.853  0.00  0.00    +0.000 A 
ATOM     13 CL   UNL     1      -1.586   4.055   3.444  0.00  0.00    +0.000 Cl
ATOM     14  C   UNL     1      -3.955   7.806   8.490  0.00  0.00    +0.000 A 
ENDBRANCH   4   8
BRANCH   1  18
ATOM     15  C   UNL     1       0.913   0.426   2.354  0.00  0.00    +0.000 A 
ATOM     16  C   UNL     1       0.433   1.193   3.474  0.00  0.00    +0.000 A 
ATOM     17  C   UNL     1      -0.395   2.351   3.252  0.00  0.00    +0.000 A 
ATOM     18  C   UNL     1      -0.875   3.118   4.372  0.00  0.00    +0.000 A 
ATOM     19  C   UNL     1      -0.527   2.729   5.714  0.00  0.00    +0.000 A 
ATOM     20  C   UNL     1       1.741  -0.732   2.577  0.00  0.00    +0.000 A 
BRANCH  15  22
ATOM     21  C   UNL     1       1.043   0.053  -0.073  0.00  0.00    +0.000 C 
ATOM     22  O   UNL     1       0.570   0.810   1.031  0.00  0.00    +0.000 OA
ENDBRANCH  15  22
ENDBRANCH   1  18
TORSDOF 3
