REMARK  Name = 
REMARK  7 active torsions:
REMARK  status: ('A' for Active; 'I' for Inactive)
REMARK    1  A    between atoms: C_1  and  O_2
REMARK    2  A    between atoms: O_2  and  C_3
REMARK    3  A    between atoms: C_8  and  C_9
REMARK    4  A    between atoms: N_11  and  N_12
REMARK    5  A    between atoms: N_12  and  C_13
REMARK    6  A    between atoms: C_13  and  N_15
REMARK    7  A    between atoms: C_16  and  C_18
REMARK                            x       y       z     vdW  Elec       q    Type
REMARK                         _______ _______ _______ _____ _____    ______ ____
ROOT
ATOM      1  N   UNL     1       3.475  -0.270  -4.411  0.00  0.00    +0.000 N 
ATOM      2  H   UNL     1       3.135  -1.226  -4.513  0.00  0.00    +0.000 HD
ENDROOT
BRANCH   1   5
ATOM      3  C   UNL     1       2.287  -0.109  -2.214  0.00  0.00    +0.000 C 
ATOM      4  O   UNL     1       1.980   0.568  -1.183  0.00  0.00    +0.000 OA
ATOM      5  N   UNL     1       3.132   0.487  -3.259  0.00  0.00    +0.000 N 
ATOM      6  H   UNL     1       3.472   1.443  -3.157  0.00  0.00    +0.000 HD
BRANCH   3  12
ATOM      7  C   UNL     1       0.953  -2.117  -1.342  0.00  0.00    +0.000 A 
ATOM      8  C   UNL     1       0.473  -3.467  -1.486  0.00  0.00    +0.000 A 
ATOM      9  C   UNL     1      -0.355  -4.050  -0.462  0.00  0.00    +0.000 A 
ATOM     10  C   UNL     1      -0.836  -5.400  -0.606  0.00  0.00    +0.000 A 
ATOM     11  C   UNL     1      -1.664  -5.983   0.418  0.00  0.00    +0.000 A 
ATOM     12  C   UNL     1       1.781  -1.534  -2.366  0.00  0.00    +0.000 A 
BRANCH   7  14
ATOM     13  C   UNL     1       1.083  -0.029  -0.048  0.00  0.00    +0.000 C 
ATOM     14  O   UNL     1       0.610  -1.360  -0.190  0.00  0.00    +0.000 OA
ENDBRANCH   7  14
ENDBRANCH   3  12
ENDBRANCH   1   5
BRANCH   1  15
ATOM     15  C   UNL     1       4.321   0.325  -5.456  0.00  0.00    +0.000 C 
ATOM     16  S   UNL     1       4.712  -0.537  -6.770  0.00  0.00    +0.000 S 
BRANCH  15  17
ATOM     17  N   UNL     1       4.811   1.704  -5.309  0.00  0.00    +0.000 N 
ATOM     18  C   UNL     1       4.455   2.486  -4.116  0.00  0.00    +0.000 C 
ATOM     19  O   UNL     1       4.879   3.678  -3.989  0.00  0.00    +0.000 OA
ATOM     20  H   UNL     1       5.397   2.117  -6.034  0.00  0.00    +0.000 HD
BRANCH  18  21
ATOM     21  C   UNL     1       3.582   1.871  -3.035  0.00  0.00    +0.000 A 
ATOM     22  C   UNL     1       3.234   2.638  -1.867  0.00  0.00    +0.000 A 
ATOM     23  C   UNL     1       3.714   3.988  -1.723  0.00  0.00    +0.000 A 
ATOM     24  C   UNL     1       3.366   4.755  -0.555  0.00  0.00    +0.000 A 
ATOM     25  O   UNL     1       3.133   0.610  -3.170  0.00  0.00    +0.000 OA
ENDBRANCH  18  21
ENDBRANCH  15  17
ENDBRANCH   1  15
TORSDOF 6
