REMARK  Name = 
REMARK  6 active torsions:
REMARK  status: ('A' for Active; 'I' for Inactive)
REMARK    1  A    between atoms: N_1  and  S_2
REMARK    2  A    between atoms: S_2  and  C_5
REMARK    3  A    between atoms: C_8  and  N_9
REMARK    4  A    between atoms: N_9  and  N_10
REMARK    5  A    between atoms: C_11  and  C_12
REMARK    6  A    between atoms: C_21  and  N_22
REMARK                            x       y       z     vdW  Elec       q    Type
REMARK                         _______ _______ _______ _____ _____    ______ ____
ROOT
ATOM      1  C   UNL     1       1.046  -2.724  -1.115  0.00  0.00    +0.000 A 
ATOM      2  C   UNL     1       0.698  -4.119  -1.187  0.00  0.00    +0.000 A 
ATOM      3  C   UNL     1      -0.130  -4.709  -0.167  0.00  0.00    +0.000 A 
ATOM      4  C   UNL     1      -0.478  -6.104  -0.239  0.00  0.00    +0.000 A 
ATOM      5  C   UNL     1       0.002  -6.911  -1.332  0.00  0.00    +0.000 A 
ATOM      6  C   UNL     1       1.874  -2.134  -2.135  0.00  0.00    +0.000 A 
ENDROOT
BRANCH   1   7
ATOM      7  S   UNL     1       0.442  -1.711   0.259  0.00  0.00    +0.000 S 
ATOM      8  O   UNL     1       0.953  -2.288   1.581  0.00  0.00    +0.000 OA
ATOM      9  O   UNL     1      -1.088  -1.711   0.259  0.00  0.00    +0.000 OA
BRANCH   7  10
ATOM     10  N   UNL     1       1.029  -0.062   0.073  0.00  0.00    +0.000 NA
ATOM     11  H   UNL     1       0.689   0.509   0.847  0.00  0.00    +0.000 HD
ATOM     12  H   UNL     1       2.049  -0.062   0.073  0.00  0.00    +0.000 HD
ENDBRANCH   7  10
ENDBRANCH   1   7
BRANCH   5  13
ATOM     13  N   UNL     1      -0.353  -8.335  -1.406  0.00  0.00    +0.000 N 
ATOM     14  O   UNL     1      -1.058  -8.837  -0.537  0.00  0.00    +0.000 OA
ATOM     15  O   UNL     1       0.103  -9.102  -2.445  0.00  0.00    +0.000 OA
ENDBRANCH   5  13
BRANCH   4  16
ATOM     16  N   UNL     1      -1.323  -6.706   0.802  0.00  0.00    +0.000 N 
ATOM     17  H   UNL     1      -1.663  -6.135   1.576  0.00  0.00    +0.000 HD
BRANCH  16  18
ATOM     18  N   UNL     1      -1.666  -8.082   0.731  0.00  0.00    +0.000 NA
ATOM     19  C   UNL     1      -1.228  -8.819  -0.268  0.00  0.00    +0.000 C 
BRANCH  19  20
ATOM     20  C   UNL     1      -1.595 -10.292  -0.344  0.00  0.00    +0.000 A 
ATOM     21  C   UNL     1      -2.423 -10.881   0.676  0.00  0.00    +0.000 A 
ATOM     22  C   UNL     1      -2.903 -10.075   1.769  0.00  0.00    +0.000 A 
ATOM     23  C   UNL     1      -3.731 -10.665   2.789  0.00  0.00    +0.000 A 
ATOM     24  C   UNL     1      -4.079 -12.061   2.717  0.00  0.00    +0.000 A 
ATOM     25  C   UNL     1      -1.115 -11.098  -1.437  0.00  0.00    +0.000 A 
ATOM     26  O   UNL     1      -4.895 -12.642   3.723  0.00  0.00    +0.000 OA
ATOM     27  C   UNL     1      -5.238 -14.018   3.651  0.00  0.00    +0.000 C 
ATOM     28  O   UNL     1      -4.204  -9.870   3.867  0.00  0.00    +0.000 OA
ENDBRANCH  19  20
ENDBRANCH  16  18
ENDBRANCH   4  16
TORSDOF 6
