REMARK  Name = 
REMARK  3 active torsions:
REMARK  status: ('A' for Active; 'I' for Inactive)
REMARK    1  A    between atoms: C_1  and  C_2
REMARK    2  A    between atoms: C_2  and  C_3
REMARK    3  A    between atoms: C_13  and  C_14
REMARK                            x       y       z     vdW  Elec       q    Type
REMARK                         _______ _______ _______ _____ _____    ______ ____
ROOT
ATOM      1  C   UNL     1       0.925  -0.061   0.026  0.00  0.00    +0.000 C 
ATOM      2  C   UNL     1       0.418   0.219   1.431  0.00  0.00    +0.000 C 
ATOM      3  C   UNL     1      -1.102   0.219   1.431  0.00  0.00    +0.000 C 
ATOM      4  C   UNL     1       0.925  -0.859   2.376  0.00  0.00    +0.000 C 
ATOM      5  C   UNL     1       1.707  -1.866   1.902  0.00  0.00    +0.000 C 
ATOM      6  C   UNL     1       2.214  -2.944   2.847  0.00  0.00    +0.000 A 
ATOM      7  C   UNL     1       1.866  -2.898   4.244  0.00  0.00    +0.000 A 
ATOM      8  C   UNL     1       2.346  -3.919   5.139  0.00  0.00    +0.000 A 
ATOM      9  C   UNL     1       3.174  -4.986   4.637  0.00  0.00    +0.000 A 
ATOM     10  C   UNL     1       3.654  -6.007   5.532  0.00  0.00    +0.000 A 
ATOM     11  C   UNL     1       2.306  -7.426   8.958  0.00  0.00    +0.000 A 
ATOM     12  O   UNL     1       1.489  -6.291   9.206  0.00  0.00    +0.000 OA
ATOM     13  C   UNL     1       1.146  -5.417   8.140  0.00  0.00    +0.000 C 
ATOM     14  C   UNL     1       2.413  -4.834   7.536  0.00  0.00    +0.000 C 
ATOM     15  C   UNL     1       3.287  -5.959   7.007  0.00  0.00    +0.000 C 
ATOM     16  O   UNL     1       3.710  -6.860   7.796  0.00  0.00    +0.000 OA
ATOM     17  O   UNL     1       0.892   1.486   1.862  0.00  0.00    +0.000 OA
ENDROOT
BRANCH  13  18
ATOM     18  C   UNL     1       0.272  -4.292   8.670  0.00  0.00    +0.000 A 
ATOM     19  C   UNL     1       0.773  -3.412   9.694  0.00  0.00    +0.000 A 
ATOM     20  C   UNL     1       2.102  -3.599  10.217  0.00  0.00    +0.000 A 
ATOM     21  C   UNL     1       2.603  -2.719  11.241  0.00  0.00    +0.000 A 
ATOM     22  C   UNL     1       1.775  -1.653  11.743  0.00  0.00    +0.000 A 
ATOM     23  C   UNL     1      -1.057  -4.105   8.147  0.00  0.00    +0.000 A 
ATOM     24  O   UNL     1       2.269  -0.785  12.753  0.00  0.00    +0.000 OA
ATOM     25  C   UNL     1       1.453   0.266  13.247  0.00  0.00    +0.000 C 
ATOM     26  O   UNL     1       3.914  -2.903  11.757  0.00  0.00    +0.000 OA
ENDBRANCH  13  18
TORSDOF 1
