REMARK  Name = 
REMARK  7 active torsions:
REMARK  status: ('A' for Active; 'I' for Inactive)
REMARK    1  A    between atoms: C_1  and  C_2
REMARK    2  A    between atoms: N_4  and  C_5
REMARK    3  A    between atoms: N_4  and  C_13
REMARK    4  A    between atoms: C_5  and  C_6
REMARK    5  A    between atoms: C_14  and  N_15
REMARK    6  A    between atoms: N_15  and  C_16
REMARK    7  A    between atoms: C_16  and  C_17
REMARK                            x       y       z     vdW  Elec       q    Type
REMARK                         _______ _______ _______ _____ _____    ______ ____
ROOT
ATOM      1  C   UNL     1       0.331  -3.566  -1.613  0.00  0.00    +0.000 C 
ATOM      2  C   UNL     1       0.659  -4.230  -2.754  0.00  0.00    +0.000 C 
ATOM      3  C   UNL     1       0.153  -5.644  -2.983  0.00  0.00    +0.000 C 
ATOM      4  O   UNL     1      -0.578  -6.207  -2.109  0.00  0.00    +0.000 OA
ATOM      5  C   UNL     1       0.520  -6.386  -4.258  0.00  0.00    +0.000 A 
ATOM      6  C   UNL     1       0.040  -7.726  -4.475  0.00  0.00    +0.000 A 
ATOM      7  C   UNL     1      -0.788  -8.364  -3.484  0.00  0.00    +0.000 A 
ATOM      8  C   UNL     1      -1.268  -9.704  -3.701  0.00  0.00    +0.000 A 
ATOM      9  C   UNL     1      -2.096 -10.342  -2.710  0.00  0.00    +0.000 A 
ATOM     10  C   UNL     1       1.348  -5.748  -5.249  0.00  0.00    +0.000 A 
ATOM     11  C   UNL     1      -0.543  -4.239  -0.567  0.00  0.00    +0.000 C 
ATOM     12  O   UNL     1      -0.850  -3.619   0.499  0.00  0.00    +0.000 OA
ENDROOT
BRANCH   1  16
ATOM     13  C   UNL     1       0.972  -0.066   0.070  0.00  0.00    +0.000 C 
ATOM     14  C   UNL     1       0.466  -1.480  -0.159  0.00  0.00    +0.000 C 
ATOM     15  O   UNL     1      -0.265  -2.043   0.716  0.00  0.00    +0.000 OA
ATOM     16  N   UNL     1       0.821  -2.198  -1.392  0.00  0.00    +0.000 N 
BRANCH  16  17
ATOM     17  C   UNL     1       1.666  -1.547  -2.403  0.00  0.00    +0.000 C 
BRANCH  17  18
ATOM     18  C   UNL     1       2.932  -2.362  -2.606  0.00  0.00    +0.000 A 
ATOM     19  C   UNL     1       3.826  -2.591  -1.500  0.00  0.00    +0.000 A 
ATOM     20  C   UNL     1       3.520  -2.046  -0.203  0.00  0.00    +0.000 A 
ATOM     21  C   UNL     1       4.414  -2.275   0.903  0.00  0.00    +0.000 A 
ATOM     22  F   UNL     1       4.132  -1.772   2.102  0.00  0.00    +0.000 F 
ATOM     23  C   UNL     1       5.615  -3.047   0.711  0.00  0.00    +0.000 A 
ATOM     24  C   UNL     1       3.239  -2.907  -3.904  0.00  0.00    +0.000 A 
ENDBRANCH  17  18
ENDBRANCH  16  17
ENDBRANCH   1  16
BRANCH   2  25
ATOM     25  N   UNL     1       1.504  -3.579  -3.766  0.00  0.00    +0.000 N 
ATOM     26  H   UNL     1       1.844  -2.630  -3.612  0.00  0.00    +0.000 HD
BRANCH  25  27
ATOM     27  C   UNL     1       1.860  -4.296  -4.999  0.00  0.00    +0.000 C 
BRANCH  27  28
ATOM     28  C   UNL     1       1.344  -3.522  -6.201  0.00  0.00    +0.000 A 
ATOM     29  C   UNL     1      -0.066  -3.266  -6.342  0.00  0.00    +0.000 A 
ATOM     30  C   UNL     1      -0.988  -3.742  -5.344  0.00  0.00    +0.000 A 
ATOM     31  C   UNL     1      -2.398  -3.485  -5.484  0.00  0.00    +0.000 A 
ATOM     32  C   UNL     1      -3.320  -3.961  -4.486  0.00  0.00    +0.000 A 
ATOM     33  C   UNL     1       2.266  -3.046  -7.200  0.00  0.00    +0.000 A 
ENDBRANCH  27  28
ENDBRANCH  25  27
ENDBRANCH   2  25
TORSDOF 6
