REMARK  Name = 
REMARK  6 active torsions:
REMARK  status: ('A' for Active; 'I' for Inactive)
REMARK    1  A    between atoms: C_1  and  N_2
REMARK    2  A    between atoms: C_3  and  O_4
REMARK    3  A    between atoms: C_5  and  C_6
REMARK    4  A    between atoms: N_7  and  N_8
REMARK    5  A    between atoms: C_9  and  C_11
REMARK    6  A    between atoms: C_20  and  O_21
REMARK                            x       y       z     vdW  Elec       q    Type
REMARK                         _______ _______ _______ _____ _____    ______ ____
ROOT
ATOM      1  N   UNL     1      -1.839   5.771   1.570  0.00  0.00    +0.000 N 
ATOM      2  C   UNL     1      -2.195   5.457   0.178  0.00  0.00    +0.000 C 
ATOM      3  O   UNL     1      -2.925   6.255  -0.487  0.00  0.00    +0.000 OA
ATOM      4  H   UNL     1      -2.179   6.631   2.001  0.00  0.00    +0.000 HD
ENDROOT
BRANCH   2   5
ATOM      5  C   UNL     1      -1.688   4.176  -0.464  0.00  0.00    +0.000 A 
ATOM      6  C   UNL     1      -2.036   3.867  -1.827  0.00  0.00    +0.000 A 
ATOM      7  C   UNL     1      -2.864   4.773  -2.582  0.00  0.00    +0.000 A 
ATOM      8  C   UNL     1      -3.344   5.986  -1.973  0.00  0.00    +0.000 A 
ATOM      9  C   UNL     1      -2.996   6.295  -0.610  0.00  0.00    +0.000 A 
ATOM     10  C   UNL     1      -3.476   7.508  -0.001  0.00  0.00    +0.000 A 
ATOM     11  C   UNL     1      -3.128   7.817   1.362  0.00  0.00    +0.000 A 
ATOM     12  C   UNL     1      -3.212   4.464  -3.945  0.00  0.00    +0.000 A 
ATOM     13  C   UNL     1      -2.732   3.251  -4.554  0.00  0.00    +0.000 A 
ATOM     14  C   UNL     1      -0.860   3.270   0.290  0.00  0.00    +0.000 A 
BRANCH  14  15
ATOM     15  O   UNL     1      -0.517   3.574   1.634  0.00  0.00    +0.000 OA
ATOM     16  H   UNL     1       0.058   2.946   2.158  0.00  0.00    +0.000 HD
ENDBRANCH  14  15
ENDBRANCH   2   5
BRANCH   1  18
ATOM     17  C   UNL     1      -0.584   3.770   1.757  0.00  0.00    +0.000 C 
ATOM     18  N   UNL     1      -1.023   4.879   2.313  0.00  0.00    +0.000 NA
BRANCH  17  22
ATOM     19  C   UNL     1       0.923   0.064   0.005  0.00  0.00    +0.000 C 
ATOM     20  N   UNL     1       0.433   1.302   0.626  0.00  0.00    +0.000 N 
ATOM     21  C   UNL     1       0.769   1.601   1.944  0.00  0.00    +0.000 A 
ATOM     22  C   UNL     1       0.289   2.814   2.553  0.00  0.00    +0.000 A 
ATOM     23  C   UNL     1       0.637   3.123   3.916  0.00  0.00    +0.000 A 
ATOM     24  C   UNL     1       0.157   4.336   4.525  0.00  0.00    +0.000 A 
ATOM     25  C   UNL     1      -0.671   5.242   3.771  0.00  0.00    +0.000 A 
ATOM     26  C   UNL     1      -1.151   6.455   4.380  0.00  0.00    +0.000 A 
ATOM     27  C   UNL     1      -1.979   7.361   3.626  0.00  0.00    +0.000 A 
ATOM     28  C   UNL     1      -0.368   2.178  -0.103  0.00  0.00    +0.000 A 
BRANCH  21  29
ATOM     29  O   UNL     1       1.586   0.708   2.688  0.00  0.00    +0.000 OA
ATOM     30  H   UNL     1       1.919  -0.135   2.265  0.00  0.00    +0.000 HD
ENDBRANCH  21  29
ENDBRANCH  17  22
ENDBRANCH   1  18
TORSDOF 5
