REMARK  Name = 
REMARK  11 active torsions:
REMARK  status: ('A' for Active; 'I' for Inactive)
REMARK    1  A    between atoms: C_1  and  C_2
REMARK    2  A    between atoms: C_2  and  C_3
REMARK    3  A    between atoms: C_3  and  C_4
REMARK    4  A    between atoms: C_3  and  O_5
REMARK    5  A    between atoms: C_3  and  C_6
REMARK    6  A    between atoms: C_10  and  N_11
REMARK    7  A    between atoms: C_15  and  C_16
REMARK    8  A    between atoms: N_18  and  C_19
REMARK    9  A    between atoms: C_19  and  C_20
REMARK   10  A    between atoms: C_20  and  C_21
REMARK   11  A    between atoms: C_22  and  C_23
REMARK                            x       y       z     vdW  Elec       q    Type
REMARK                         _______ _______ _______ _____ _____    ______ ____
ROOT
ATOM      1  N   UNL     1       1.143   1.253  -7.102  0.00  0.00    +0.000 N 
ATOM      2  C   UNL     1       0.408   1.252  -5.829  0.00  0.00    +0.000 A 
ATOM      3  N   UNL     1       1.105   1.251  -4.623  0.00  0.00    +0.000 NA
ATOM      4  C   UNL     1       0.408   1.250  -3.416  0.00  0.00    +0.000 A 
ATOM      5  C   UNL     1      -1.032   1.250  -3.416  0.00  0.00    +0.000 A 
ATOM      6  C   UNL     1      -1.752   1.251  -4.664  0.00  0.00    +0.000 A 
ATOM      7  N   UNL     1      -0.985   1.252  -5.829  0.00  0.00    +0.000 NA
ATOM      8  H   UNL     1       0.633   1.254  -7.985  0.00  0.00    +0.000 HD
ENDROOT
BRANCH   1  13
ATOM      9  C   UNL     1       2.613   1.249  -2.113  0.00  0.00    +0.000 A 
ATOM     10  C   UNL     1       3.333   1.250  -3.360  0.00  0.00    +0.000 A 
ATOM     11  C   UNL     1       2.613   1.251  -4.607  0.00  0.00    +0.000 A 
ATOM     12  C   UNL     1       3.333   1.252  -5.855  0.00  0.00    +0.000 A 
ATOM     13  C   UNL     1       2.613   1.253  -7.102  0.00  0.00    +0.000 A 
ATOM     14  N   UNL     1       3.310   1.247  -0.907  0.00  0.00    +0.000 NA
BRANCH   9  15
ATOM     15  C   UNL     1       1.093   1.249  -2.113  0.00  0.00    +0.000 C 
ATOM     16  C   UNL     1       0.587   0.008  -2.831  0.00  0.00    +0.000 C 
BRANCH  15  18
ATOM     17  C   UNL     1       1.093   0.006   0.036  0.00  0.00    +0.000 C 
ATOM     18  C   UNL     1       0.587   1.247  -0.680  0.00  0.00    +0.000 C 
ENDBRANCH  15  18
BRANCH  15  19
ATOM     19  O   UNL     1       0.620   2.409  -2.781  0.00  0.00    +0.000 OA
ATOM     20  H   UNL     1      -0.380   2.409  -2.781  0.00  0.00    +0.000 HD
ENDBRANCH  15  19
ENDBRANCH   9  15
ENDBRANCH   1  13
BRANCH   5  21
ATOM     21  C   UNL     1      -1.792   1.249  -2.100  0.00  0.00    +0.000 C 
ATOM     22  O   UNL     1      -3.063   1.249  -2.100  0.00  0.00    +0.000 OA
ATOM     23  N   UNL     1      -1.057   1.247  -0.827  0.00  0.00    +0.000 N 
ATOM     24  H   UNL     1      -1.567   1.247   0.056  0.00  0.00    +0.000 HD
BRANCH  23  25
ATOM     25  C   UNL     1       0.413   1.247  -0.827  0.00  0.00    +0.000 C 
BRANCH  25  26
ATOM     26  C   UNL     1       0.920   2.488  -0.109  0.00  0.00    +0.000 C 
BRANCH  26  27
ATOM     27  C   UNL     1       0.413   2.486   1.324  0.00  0.00    +0.000 A 
ATOM     28  C   UNL     1      -1.003   2.486   1.587  0.00  0.00    +0.000 A 
ATOM     29  C   UNL     1      -1.991   2.487   0.432  0.00  0.00    +0.000 C 
ATOM     30  N   UNL     1      -1.467   2.485   2.900  0.00  0.00    +0.000 N 
ATOM     31  C   UNL     1      -0.562   2.484   3.959  0.00  0.00    +0.000 A 
ATOM     32  C   UNL     1       0.854   2.484   3.696  0.00  0.00    +0.000 A 
ATOM     33  C   UNL     1       1.334   2.486   2.338  0.00  0.00    +0.000 A 
ATOM     34  C   UNL     1       2.750   2.486   2.075  0.00  0.00    +0.000 A 
ATOM     35  C   UNL     1       3.230   2.487   0.717  0.00  0.00    +0.000 A 
ATOM     36  C   UNL     1      -1.042   2.483   5.317  0.00  0.00    +0.000 A 
ATOM     37  H   UNL     1      -2.470   2.485   3.086  0.00  0.00    +0.000 HD
ENDBRANCH  26  27
ENDBRANCH  25  26
ENDBRANCH  23  25
ENDBRANCH   5  21
TORSDOF 8
