REMARK  Name = 
REMARK  7 active torsions:
REMARK  status: ('A' for Active; 'I' for Inactive)
REMARK    1  A    between atoms: C_1  and  O_2
REMARK    2  A    between atoms: O_2  and  C_3
REMARK    3  A    between atoms: C_5  and  O_6
REMARK    4  A    between atoms: O_6  and  C_7
REMARK    5  A    between atoms: C_9  and  C_10
REMARK    6  A    between atoms: C_23  and  O_24
REMARK    7  A    between atoms: O_24  and  C_25
REMARK                            x       y       z     vdW  Elec       q    Type
REMARK                         _______ _______ _______ _____ _____    ______ ____
ROOT
ATOM      1  C   UNL     1       0.502   1.314   0.366  0.00  0.00    +0.000 A 
ATOM      2  O   UNL     1       0.950   0.091   0.030  0.00  0.00    +0.000 OA
ATOM      3  C   UNL     1       1.724  -0.601   0.886  0.00  0.00    +0.000 A 
ATOM      4  C   UNL     1       2.204  -1.910   0.527  0.00  0.00    +0.000 A 
ATOM      5  C   UNL     1       1.856  -2.479  -0.750  0.00  0.00    +0.000 A 
ATOM      6  C   UNL     1       2.336  -3.788  -1.110  0.00  0.00    +0.000 A 
ATOM      7  C   UNL     1       1.988  -4.357  -2.386  0.00  0.00    +0.000 A 
ATOM      8  O   UNL     1       1.214  -3.665  -3.243  0.00  0.00    +0.000 OA
ATOM      9  C   UNL     1       0.889  -4.197  -4.435  0.00  0.00    +0.000 A 
ATOM     10  C   UNL     1       1.369  -5.506  -4.795  0.00  0.00    +0.000 A 
ATOM     11  C   UNL     1       2.072  -0.032   2.163  0.00  0.00    +0.000 A 
ATOM     12  C   UNL     1       3.032  -2.651   1.443  0.00  0.00    +0.000 A 
ATOM     13  O   UNL     1       3.455  -3.806   1.126  0.00  0.00    +0.000 OA
ATOM     14  C   UNL     1       0.850   1.883   1.643  0.00  0.00    +0.000 A 
ENDROOT
BRANCH   1  19
ATOM     15  C   UNL     1       0.804   1.924   1.592  0.00  0.00    +0.000 A 
ATOM     16  C   UNL     1       0.324   3.233   1.952  0.00  0.00    +0.000 A 
ATOM     17  C   UNL     1      -0.504   3.973   1.035  0.00  0.00    +0.000 A 
ATOM     18  C   UNL     1      -0.852   3.405  -0.241  0.00  0.00    +0.000 A 
ATOM     19  C   UNL     1      -0.372   2.095  -0.601  0.00  0.00    +0.000 A 
ATOM     20  C   UNL     1       1.632   1.183   2.509  0.00  0.00    +0.000 A 
BRANCH  15  22
ATOM     21  C   UNL     1       0.934   0.072  -0.021  0.00  0.00    +0.000 C 
ATOM     22  O   UNL     1       0.461   1.363   0.333  0.00  0.00    +0.000 OA
ENDBRANCH  15  22
BRANCH  17  23
ATOM     23  O   UNL     1      -0.978   5.264   1.390  0.00  0.00    +0.000 OA
ATOM     24  C   UNL     1      -0.635   5.825   2.649  0.00  0.00    +0.000 C 
ENDBRANCH  17  23
ENDBRANCH   1  19
BRANCH  14  25
ATOM     25  O   UNL     1       0.376   3.174   1.998  0.00  0.00    +0.000 OA
ATOM     26  C   UNL     1       0.719   3.734   3.256  0.00  0.00    +0.000 C 
ENDBRANCH  14  25
TORSDOF 4
