REMARK  Name = 
REMARK  7 active torsions:
REMARK  status: ('A' for Active; 'I' for Inactive)
REMARK    1  A    between atoms: C_1  and  C_2
REMARK    2  A    between atoms: C_2  and  O_3
REMARK    3  A    between atoms: O_3  and  C_4
REMARK    4  A    between atoms: C_7  and  N_8
REMARK    5  A    between atoms: N_8  and  C_9
REMARK    6  A    between atoms: N_8  and  C_10
REMARK    7  A    between atoms: C_13  and  C_14
REMARK                            x       y       z     vdW  Elec       q    Type
REMARK                         _______ _______ _______ _____ _____    ______ ____
ROOT
ATOM      1  C   UNL     1       0.060   4.618  -5.313  0.00  0.00    +0.000 A 
ATOM      2  C   UNL     1      -0.875   5.187  -6.248  0.00  0.00    +0.000 A 
ATOM      3  C   UNL     1      -0.395   5.893  -7.408  0.00  0.00    +0.000 A 
ATOM      4  C   UNL     1      -1.331   6.462  -8.343  0.00  0.00    +0.000 A 
ATOM      5  C   UNL     1      -2.747   6.325  -8.118  0.00  0.00    +0.000 A 
ATOM      6  C   UNL     1      -0.420   3.912  -4.153  0.00  0.00    +0.000 A 
ENDROOT
BRANCH   4   7
ATOM      7  C   UNL     1      -0.825   7.207  -9.567  0.00  0.00    +0.000 C 
ATOM      8  C   UNL     1      -1.709   7.745 -10.451  0.00  0.00    +0.000 C 
ATOM      9  S   UNL     1      -1.105   8.632 -11.909  0.00  0.00    +0.000 S 
ATOM     10  C   UNL     1      -2.513   9.223 -12.880  0.00  0.00    +0.000 C 
ATOM     11  S   UNL     1      -4.025   8.921 -12.383  0.00  0.00    +0.000 S 
ATOM     12  N   UNL     1      -2.285   9.978 -14.121  0.00  0.00    +0.000 N 
ATOM     13  C   UNL     1      -3.203   7.600 -10.214  0.00  0.00    +0.000 C 
ATOM     14  O   UNL     1      -3.627   6.977  -9.190  0.00  0.00    +0.000 OA
ATOM     15  H   UNL     1      -3.078  10.311 -14.669  0.00  0.00    +0.000 HD
ENDBRANCH   4   7
BRANCH   1  16
ATOM     16  N   UNL     1       1.506   4.758  -5.543  0.00  0.00    +0.000 N 
ATOM     17  C   UNL     1       1.996   5.478  -6.726  0.00  0.00    +0.000 C 
BRANCH  16  21
ATOM     18  C   UNL     1       2.437   2.196  -1.333  0.00  0.00    +0.000 A 
ATOM     19  C   UNL     1       2.917   2.902  -2.493  0.00  0.00    +0.000 A 
ATOM     20  C   UNL     1       1.981   3.471  -3.428  0.00  0.00    +0.000 A 
ATOM     21  C   UNL     1       2.461   4.177  -4.588  0.00  0.00    +0.000 A 
ATOM     22  C   UNL     1       3.877   4.314  -4.813  0.00  0.00    +0.000 A 
ATOM     23  C   UNL     1       3.373   1.627  -0.398  0.00  0.00    +0.000 A 
BRANCH  18  24
ATOM     24  O   UNL     1       1.041   2.061  -1.111  0.00  0.00    +0.000 OA
BRANCH  24  26
ATOM     25  C   UNL     1       1.074  -0.067  -0.001  0.00  0.00    +0.000 C 
ATOM     26  C   UNL     1       0.567   1.365   0.032  0.00  0.00    +0.000 C 
ENDBRANCH  24  26
ENDBRANCH  18  24
ENDBRANCH  16  21
ENDBRANCH   1  16
TORSDOF 5
