REMARK  Name = 
REMARK  8 active torsions:
REMARK  status: ('A' for Active; 'I' for Inactive)
REMARK    1  A    between atoms: C_1  and  O_2
REMARK    2  A    between atoms: O_2  and  C_3
REMARK    3  A    between atoms: C_8  and  C_9
REMARK    4  A    between atoms: C_12  and  C_13
REMARK    5  A    between atoms: N_15  and  C_16
REMARK    6  A    between atoms: C_16  and  C_17
REMARK    7  A    between atoms: C_17  and  C_18
REMARK    8  A    between atoms: C_19  and  C_20
REMARK                            x       y       z     vdW  Elec       q    Type
REMARK                         _______ _______ _______ _____ _____    ______ ____
ROOT
ATOM      1  C   UNL     1       4.635  -6.406   1.606  0.00  0.00    +0.000 C 
ATOM      2  O   UNL     1       5.365  -7.380   1.242  0.00  0.00    +0.000 OA
ATOM      3  N   UNL     1       4.145  -6.331   2.990  0.00  0.00    +0.000 N 
ATOM      4  H   UNL     1       4.391  -7.061   3.658  0.00  0.00    +0.000 HD
ENDROOT
BRANCH   1   8
ATOM      5  C   UNL     1       2.263  -2.079   0.490  0.00  0.00    +0.000 A 
ATOM      6  C   UNL     1       3.091  -3.183   0.078  0.00  0.00    +0.000 A 
ATOM      7  C   UNL     1       3.439  -4.214   1.022  0.00  0.00    +0.000 A 
ATOM      8  C   UNL     1       4.267  -5.318   0.610  0.00  0.00    +0.000 A 
ATOM      9  C   UNL     1       4.747  -5.391  -0.746  0.00  0.00    +0.000 A 
ATOM     10  N   UNL     1       1.927  -1.082  -0.422  0.00  0.00    +0.000 NA
BRANCH   5  16
ATOM     11  C   UNL     1       0.929  -0.898   2.333  0.00  0.00    +0.000 A 
ATOM     12  C   UNL     1       0.449  -0.825   3.689  0.00  0.00    +0.000 A 
ATOM     13  C   UNL     1      -0.379   0.279   4.101  0.00  0.00    +0.000 A 
ATOM     14  C   UNL     1      -0.859   0.352   5.457  0.00  0.00    +0.000 A 
ATOM     15  C   UNL     1      -1.687   1.456   5.870  0.00  0.00    +0.000 A 
ATOM     16  C   UNL     1       1.757  -2.002   1.921  0.00  0.00    +0.000 A 
BRANCH  11  18
ATOM     17  C   UNL     1       1.059   0.046   0.066  0.00  0.00    +0.000 C 
ATOM     18  O   UNL     1       0.586   0.118   1.403  0.00  0.00    +0.000 OA
ENDBRANCH  11  18
ENDBRANCH   5  16
ENDBRANCH   1   8
BRANCH   3  19
ATOM     19  C   UNL     1       3.299  -5.204   3.410  0.00  0.00    +0.000 C 
BRANCH  19  20
ATOM     20  C   UNL     1       1.957  -5.730   3.891  0.00  0.00    +0.000 C 
BRANCH  20  21
ATOM     21  C   UNL     1       2.172  -6.669   5.068  0.00  0.00    +0.000 A 
ATOM     22  C   UNL     1       2.972  -7.855   4.905  0.00  0.00    +0.000 A 
ATOM     23  C   UNL     1       3.601  -8.169   3.557  0.00  0.00    +0.000 C 
ATOM     24  N   UNL     1       3.170  -8.715   5.983  0.00  0.00    +0.000 N 
ATOM     25  C   UNL     1       2.593  -8.428   7.218  0.00  0.00    +0.000 A 
ATOM     26  C   UNL     1       1.793  -7.241   7.380  0.00  0.00    +0.000 A 
ATOM     27  C   UNL     1       1.589  -6.352   6.266  0.00  0.00    +0.000 A 
ATOM     28  C   UNL     1       0.789  -5.166   6.428  0.00  0.00    +0.000 A 
ATOM     29  C   UNL     1       0.585  -4.276   5.314  0.00  0.00    +0.000 A 
ATOM     30  C   UNL     1       2.797  -9.317   8.332  0.00  0.00    +0.000 A 
ATOM     31  H   UNL     1       3.736  -9.555   5.867  0.00  0.00    +0.000 HD
ENDBRANCH  20  21
ENDBRANCH  19  20
ENDBRANCH   3  19
TORSDOF 6
