REMARK  Name = 
REMARK  4 active torsions:
REMARK  status: ('A' for Active; 'I' for Inactive)
REMARK    1  A    between atoms: C_2  and  C_28
REMARK    2  A    between atoms: N_3  and  C_4
REMARK    3  A    between atoms: C_9  and  N_10
REMARK    4  A    between atoms: N_10  and  C_11
REMARK                            x       y       z     vdW  Elec       q    Type
REMARK                         _______ _______ _______ _____ _____    ______ ____
ROOT
ATOM      1  N   UNL     1       7.368  -2.676   2.680  0.00  0.00    +0.000 N 
ATOM      2  H   UNL     1       8.388  -2.676   2.680  0.00  0.00    +0.000 HD
ENDROOT
BRANCH   1   3
ATOM      3  C   UNL     1       6.633  -3.554   3.602  0.00  0.00    +0.000 A 
ATOM      4  C   UNL     1       5.193  -3.554   3.602  0.00  0.00    +0.000 A 
ATOM      5  C   UNL     1       4.473  -2.694   2.698  0.00  0.00    +0.000 A 
ATOM      6  C   UNL     1       3.033  -2.694   2.698  0.00  0.00    +0.000 A 
ATOM      7  C   UNL     1       2.312  -3.554   3.602  0.00  0.00    +0.000 A 
ATOM      8  C   UNL     1       7.353  -4.414   4.505  0.00  0.00    +0.000 A 
ATOM      9  O   UNL     1       0.892  -3.554   3.602  0.00  0.00    +0.000 OA
ATOM     10  C   UNL     1       0.182  -4.402   4.492  0.00  0.00    +0.000 C 
ATOM     11  C   UNL     1       0.550  -5.850   4.213  0.00  0.00    +0.000 A 
ATOM     12  C   UNL     1       0.298  -6.420   2.915  0.00  0.00    +0.000 A 
ATOM     13  C   UNL     1      -0.303  -5.617   1.881  0.00  0.00    +0.000 A 
ATOM     14  C   UNL     1      -0.555  -6.187   0.582  0.00  0.00    +0.000 A 
ATOM     15  C   UNL     1      -1.155  -5.385  -0.452  0.00  0.00    +0.000 A 
ATOM     16  C   UNL     1       1.150  -6.653   5.248  0.00  0.00    +0.000 A 
ATOM     17  C   UNL     1       2.273  -1.786   1.745  0.00  0.00    +0.000 C 
ATOM     18  O   UNL     1       2.908  -1.027   0.948  0.00  0.00    +0.000 OA
ENDBRANCH   1   3
BRANCH   1  24
ATOM     19  C   UNL     1       4.473   0.783  -0.952  0.00  0.00    +0.000 A 
ATOM     20  C   UNL     1       5.193  -0.078  -0.049  0.00  0.00    +0.000 A 
ATOM     21  C   UNL     1       4.473  -0.938   0.855  0.00  0.00    +0.000 A 
ATOM     22  C   UNL     1       5.193  -1.798   1.758  0.00  0.00    +0.000 A 
ATOM     23  F   UNL     1       4.528  -2.592   2.592  0.00  0.00    +0.000 F 
ATOM     24  C   UNL     1       6.633  -1.798   1.758  0.00  0.00    +0.000 A 
ATOM     25  C   UNL     1       5.193   1.643  -1.855  0.00  0.00    +0.000 A 
BRANCH  19  28
ATOM     26  O   UNL     1       0.997  -0.095  -0.030  0.00  0.00    +0.000 OA
ATOM     27  C   UNL     1       2.268  -0.095  -0.030  0.00  0.00    +0.000 C 
ATOM     28  N   UNL     1       3.003   0.783  -0.952  0.00  0.00    +0.000 N 
ATOM     29  H   UNL     1       2.493   1.392  -1.591  0.00  0.00    +0.000 HD
BRANCH  27  30
ATOM     30  C   UNL     1       3.028  -1.003   0.923  0.00  0.00    +0.000 A 
ATOM     31  C   UNL     1       4.468  -1.003   0.923  0.00  0.00    +0.000 A 
ATOM     32  C   UNL     1       5.188  -0.143   0.020  0.00  0.00    +0.000 A 
ATOM     33  C   UNL     1       6.628  -0.143   0.020  0.00  0.00    +0.000 A 
ATOM     34  C   UNL     1       7.348   0.717  -0.883  0.00  0.00    +0.000 A 
ATOM     35  C   UNL     1       2.308  -1.863   1.827  0.00  0.00    +0.000 A 
ENDBRANCH  27  30
ENDBRANCH  19  28
ENDBRANCH   1  24
TORSDOF 4
