REMARK  Name = 
REMARK  3 active torsions:
REMARK  status: ('A' for Active; 'I' for Inactive)
REMARK    1  A    between atoms: C_2  and  C_3
REMARK    2  A    between atoms: C_6  and  C_7
REMARK    3  A    between atoms: C_10  and  C_11
REMARK                            x       y       z     vdW  Elec       q    Type
REMARK                         _______ _______ _______ _____ _____    ______ ____
ROOT
ATOM      1  C   UNL     1      -1.826  -4.617   2.038  0.00  0.00    +0.000 A 
ATOM      2  C   UNL     1      -0.385  -4.617   2.038  0.00  0.00    +0.000 A 
ATOM      3  N   UNL     1       0.311  -3.523   1.531  0.00  0.00    +0.000 NA
ATOM      4  C   UNL     1      -0.385  -2.428   1.024  0.00  0.00    +0.000 A 
ATOM      5  N   UNL     1      -2.522  -5.712   2.544  0.00  0.00    +0.000 N 
ATOM      6  H   UNL     1      -3.542  -5.712   2.544  0.00  0.00    +0.000 HD
ENDROOT
BRANCH   4   7
ATOM      7  C   UNL     1       0.375  -1.233   0.472  0.00  0.00    +0.000 A 
ATOM      8  C   UNL     1      -0.346  -0.102  -0.052  0.00  0.00    +0.000 A 
ATOM      9  F   UNL     1      -1.676  -0.102  -0.052  0.00  0.00    +0.000 F 
ATOM     10  C   UNL     1       0.375   1.030  -0.576  0.00  0.00    +0.000 A 
ATOM     11  C   UNL     1       1.815   1.030  -0.576  0.00  0.00    +0.000 A 
ATOM     12  C   UNL     1       2.535   2.162  -1.100  0.00  0.00    +0.000 A 
ATOM     13  C   UNL     1       1.815  -1.233   0.472  0.00  0.00    +0.000 A 
ATOM     14 CL   UNL     1       2.705  -2.632   1.119  0.00  0.00    +0.000 Cl
ENDBRANCH   4   7
BRANCH   1  18
ATOM     15  C   UNL     1      -1.866  -0.027  -0.087  0.00  0.00    +0.000 A 
ATOM     16  C   UNL     1      -2.586  -1.159   0.437  0.00  0.00    +0.000 A 
ATOM     17  C   UNL     1      -1.866  -2.291   0.961  0.00  0.00    +0.000 A 
ATOM     18  C   UNL     1      -2.586  -3.423   1.485  0.00  0.00    +0.000 A 
ATOM     19  C   UNL     1      -4.026  -3.423   1.485  0.00  0.00    +0.000 A 
ATOM     20  N   UNL     1      -2.562   1.068  -0.593  0.00  0.00    +0.000 NA
BRANCH  15  22
ATOM     21  C   UNL     1       0.958  -0.027  -0.087  0.00  0.00    +0.000 C 
ATOM     22  C   UNL     1      -0.346  -0.027  -0.087  0.00  0.00    +0.000 C 
ENDBRANCH  15  22
ENDBRANCH   1  18
TORSDOF 3
