REMARK  Name = 
REMARK  11 active torsions:
REMARK  status: ('A' for Active; 'I' for Inactive)
REMARK    1  A    between atoms: C_1  and  C_2
REMARK    2  A    between atoms: C_2  and  O_3
REMARK    3  A    between atoms: O_3  and  C_4
REMARK    4  A    between atoms: C_4  and  C_6
REMARK    5  A    between atoms: C_10  and  O_11
REMARK    6  A    between atoms: C_12  and  O_13
REMARK    7  A    between atoms: C_16  and  C_17
REMARK    8  A    between atoms: C_20  and  O_21
REMARK    9  A    between atoms: C_22  and  O_23
REMARK   10  A    between atoms: C_25  and  C_26
REMARK   11  A    between atoms: C_26  and  O_28
REMARK                            x       y       z     vdW  Elec       q    Type
REMARK                         _______ _______ _______ _____ _____    ______ ____
ROOT
ATOM      1  C   UNL     1       2.943   0.040  -3.980  0.00  0.00    +0.000 A 
ATOM      2  C   UNL     1       4.359  -0.037  -4.231  0.00  0.00    +0.000 A 
ATOM      3  C   UNL     1       5.295   0.281  -3.184  0.00  0.00    +0.000 A 
ATOM      4  C   UNL     1       4.815   0.676  -1.885  0.00  0.00    +0.000 A 
ATOM      5  C   UNL     1       3.399   0.752  -1.633  0.00  0.00    +0.000 A 
ATOM      6  C   UNL     1       2.463   0.434  -2.680  0.00  0.00    +0.000 A 
ATOM      7  C   UNL     1       1.047   0.511  -2.429  0.00  0.00    +0.000 A 
ATOM      8  C   UNL     1       6.711   0.205  -3.436  0.00  0.00    +0.000 A 
ATOM      9  C   UNL     1       7.191  -0.190  -4.735  0.00  0.00    +0.000 A 
ATOM     10  C   UNL     1       2.008  -0.278  -5.027  0.00  0.00    +0.000 A 
ENDROOT
BRANCH   9  11
ATOM     11  C   UNL     1       8.686  -0.270  -5.001  0.00  0.00    +0.000 A 
ATOM     12  C   UNL     1       9.166  -0.665  -6.300  0.00  0.00    +0.000 A 
ATOM     13  C   UNL     1       8.230  -0.983  -7.348  0.00  0.00    +0.000 A 
ATOM     14  C   UNL     1       8.710  -1.377  -8.647  0.00  0.00    +0.000 A 
ATOM     15  C   UNL     1      10.126  -1.454  -8.899  0.00  0.00    +0.000 A 
ATOM     16  C   UNL     1       9.622   0.048  -3.953  0.00  0.00    +0.000 A 
BRANCH  14  17
ATOM     17  O   UNL     1       7.787  -1.691  -9.680  0.00  0.00    +0.000 OA
ATOM     18  H   UNL     1       6.804  -1.638  -9.505  0.00  0.00    +0.000 HD
ENDBRANCH  14  17
BRANCH  15  19
ATOM     19  O   UNL     1      10.599  -1.843 -10.180  0.00  0.00    +0.000 OA
ATOM     20  H   UNL     1      11.582  -1.896 -10.355  0.00  0.00    +0.000 HD
ENDBRANCH  15  19
ENDBRANCH   9  11
BRANCH   1  21
ATOM     21  C   UNL     1       2.437   0.456  -2.608  0.00  0.00    +0.000 C 
ATOM     22  O   UNL     1       3.263   0.737  -1.684  0.00  0.00    +0.000 OA
BRANCH  21  23
ATOM     23  O   UNL     1       1.041   0.532  -2.360  0.00  0.00    +0.000 OA
BRANCH  23  25
ATOM     24  C   UNL     1       1.074  -0.059  -0.033  0.00  0.00    +0.000 C 
ATOM     25  C   UNL     1       0.567   0.921  -1.079  0.00  0.00    +0.000 C 
ENDBRANCH  23  25
ENDBRANCH  21  23
ENDBRANCH   1  21
BRANCH   5  26
ATOM     26  O   UNL     1       2.926   1.141  -0.352  0.00  0.00    +0.000 OA
ATOM     27  H   UNL     1       3.576   1.362   0.375  0.00  0.00    +0.000 HD
ENDBRANCH   5  26
BRANCH   6  28
ATOM     28  O   UNL     1       2.937   0.045  -3.961  0.00  0.00    +0.000 OA
ATOM     29  H   UNL     1       3.920  -0.008  -4.136  0.00  0.00    +0.000 HD
ENDBRANCH   6  28
BRANCH  10  30
ATOM     30  C   UNL     1       0.513  -0.197  -4.761  0.00  0.00    +0.000 C 
ATOM     31  O   UNL     1       0.089   0.151  -3.615  0.00  0.00    +0.000 OA
BRANCH  30  32
ATOM     32  O   UNL     1      -0.410  -0.511  -5.794  0.00  0.00    +0.000 OA
ATOM     33  H   UNL     1      -1.393  -0.458  -5.619  0.00  0.00    +0.000 HD
ENDBRANCH  30  32
ENDBRANCH  10  30
TORSDOF 10
