REMARK  Name = 
REMARK  9 active torsions:
REMARK  status: ('A' for Active; 'I' for Inactive)
REMARK    1  A    between atoms: C_1  and  O_2
REMARK    2  A    between atoms: O_2  and  C_3
REMARK    3  A    between atoms: C_6  and  C_7
REMARK    4  A    between atoms: C_7  and  C_8
REMARK    5  A    between atoms: C_7  and  C_9
REMARK    6  A    between atoms: C_7  and  C_10
REMARK    7  A    between atoms: C_10  and  N_11
REMARK    8  A    between atoms: C_18  and  O_19
REMARK    9  A    between atoms: O_19  and  C_20
REMARK                            x       y       z     vdW  Elec       q    Type
REMARK                         _______ _______ _______ _____ _____    ______ ____
ROOT
ATOM      1  C   UNL     1       0.908  -1.958   1.631  0.00  0.00    +0.000 A 
ATOM      2  C   UNL     1       0.428  -2.519   2.867  0.00  0.00    +0.000 A 
ATOM      3  C   UNL     1      -0.400  -1.730   3.742  0.00  0.00    +0.000 A 
ATOM      4  C   UNL     1      -0.880  -2.290   4.979  0.00  0.00    +0.000 A 
ATOM      5  C   UNL     1      -0.532  -3.640   5.341  0.00  0.00    +0.000 A 
ATOM      6  C   UNL     1       1.736  -2.747   0.756  0.00  0.00    +0.000 A 
ENDROOT
BRANCH   4   7
ATOM      7  C   UNL     1      -1.754  -1.458   5.903  0.00  0.00    +0.000 C 
ATOM      8  C   UNL     1      -3.096  -2.146   6.087  0.00  0.00    +0.000 C 
ATOM      9  C   UNL     1      -1.070  -1.312   7.252  0.00  0.00    +0.000 C 
BRANCH   7  10
ATOM     10  C   UNL     1      -1.969  -0.082   5.292  0.00  0.00    +0.000 C 
BRANCH  10  11
ATOM     11  N   UNL     1      -0.671   0.584   5.114  0.00  0.00    +0.000 N 
ATOM     12  C   UNL     1       0.144   0.829   6.217  0.00  0.00    +0.000 A 
ATOM     13  C   UNL     1      -0.287   0.430   7.533  0.00  0.00    +0.000 A 
ATOM     14  N   UNL     1       0.528   0.675   8.636  0.00  0.00    +0.000 N 
ATOM     15  C   UNL     1      -0.255   0.969   3.842  0.00  0.00    +0.000 A 
ATOM     16  O   UNL     1      -0.998   0.746   2.835  0.00  0.00    +0.000 OA
ATOM     17  H   UNL     1       1.429   1.137   8.512  0.00  0.00    +0.000 HD
ENDBRANCH  10  11
ENDBRANCH   7  10
ENDBRANCH   4   7
BRANCH   1  19
ATOM     18  C   UNL     1       1.039  -0.074   0.055  0.00  0.00    +0.000 C 
ATOM     19  O   UNL     1       0.565  -0.627   1.274  0.00  0.00    +0.000 OA
ENDBRANCH   1  19
BRANCH   6  20
ATOM     20  O   UNL     1       2.210  -2.194  -0.464  0.00  0.00    +0.000 OA
BRANCH  20  21
ATOM     21  C   UNL     1       3.026  -2.972  -1.326  0.00  0.00    +0.000 C 
ATOM     22  C   UNL     1       2.266  -4.216  -1.758  0.00  0.00    +0.000 C 
ATOM     23  C   UNL     1       0.999  -3.807  -2.492  0.00  0.00    +0.000 C 
ATOM     24  C   UNL     1       1.366  -2.987  -3.718  0.00  0.00    +0.000 C 
ATOM     25  C   UNL     1       4.293  -3.382  -0.593  0.00  0.00    +0.000 C 
ENDBRANCH  20  21
ENDBRANCH   6  20
TORSDOF 6
