REMARK  Name = 
REMARK  4 active torsions:
REMARK  status: ('A' for Active; 'I' for Inactive)
REMARK    1  A    between atoms: C_2  and  C_27
REMARK    2  A    between atoms: N_3  and  C_4
REMARK    3  A    between atoms: C_8  and  N_9
REMARK    4  A    between atoms: N_9  and  C_10
REMARK                            x       y       z     vdW  Elec       q    Type
REMARK                         _______ _______ _______ _____ _____    ______ ____
ROOT
ATOM      1  N   UNL     1       3.078  -3.596   1.076  0.00  0.00    +0.000 N 
ATOM      2  H   UNL     1       2.568  -4.446   1.316  0.00  0.00    +0.000 HD
ENDROOT
BRANCH   1   3
ATOM      3  C   UNL     1       2.343  -2.371   0.730  0.00  0.00    +0.000 A 
ATOM      4  C   UNL     1       3.063  -1.171   0.391  0.00  0.00    +0.000 A 
ATOM      5  C   UNL     1       4.503  -1.171   0.391  0.00  0.00    +0.000 A 
ATOM      6  C   UNL     1       5.224   0.030   0.052  0.00  0.00    +0.000 A 
ATOM      7  C   UNL     1       4.503   1.230  -0.287  0.00  0.00    +0.000 A 
ATOM      8  C   UNL     1       0.903  -2.371   0.730  0.00  0.00    +0.000 A 
ATOM      9  O   UNL     1       5.213   2.414  -0.621  0.00  0.00    +0.000 OA
ATOM     10  C   UNL     1       4.503   3.597  -0.955  0.00  0.00    +0.000 C 
ATOM     11  C   UNL     1       3.630   3.337  -2.171  0.00  0.00    +0.000 A 
ATOM     12  C   UNL     1       4.230   2.929  -3.415  0.00  0.00    +0.000 A 
ATOM     13  C   UNL     1       5.658   2.766  -3.507  0.00  0.00    +0.000 A 
ATOM     14  C   UNL     1       6.258   2.358  -4.750  0.00  0.00    +0.000 A 
ATOM     15  C   UNL     1       7.686   2.195  -4.842  0.00  0.00    +0.000 A 
ATOM     16  C   UNL     1       2.202   3.500  -2.080  0.00  0.00    +0.000 A 
ATOM     17  C   UNL     1       6.744   0.030   0.052  0.00  0.00    +0.000 C 
ATOM     18  O   UNL     1       7.379  -1.029   0.351  0.00  0.00    +0.000 OA
ENDBRANCH   1   3
BRANCH   1  23
ATOM     19  C   UNL     1       4.548   1.205  -0.280  0.00  0.00    +0.000 A 
ATOM     20  C   UNL     1       5.268   0.005   0.059  0.00  0.00    +0.000 A 
ATOM     21  C   UNL     1       4.548  -1.195   0.398  0.00  0.00    +0.000 A 
ATOM     22  C   UNL     1       5.268  -2.396   0.737  0.00  0.00    +0.000 A 
ATOM     23  C   UNL     1       4.548  -3.596   1.076  0.00  0.00    +0.000 A 
ATOM     24  C   UNL     1       5.268   2.406  -0.619  0.00  0.00    +0.000 A 
BRANCH  19  27
ATOM     25  O   UNL     1       1.072  -0.020   0.066  0.00  0.00    +0.000 OA
ATOM     26  C   UNL     1       2.343  -0.020   0.066  0.00  0.00    +0.000 C 
ATOM     27  N   UNL     1       3.078   1.205  -0.280  0.00  0.00    +0.000 N 
ATOM     28  H   UNL     1       2.568   2.055  -0.520  0.00  0.00    +0.000 HD
BRANCH  26  29
ATOM     29  C   UNL     1       3.103  -1.287   0.424  0.00  0.00    +0.000 A 
ATOM     30  C   UNL     1       4.543  -1.287   0.424  0.00  0.00    +0.000 A 
ATOM     31  C   UNL     1       5.263  -0.086   0.085  0.00  0.00    +0.000 A 
ATOM     32  C   UNL     1       6.704  -0.086   0.085  0.00  0.00    +0.000 A 
ATOM     33  C   UNL     1       7.424   1.114  -0.254  0.00  0.00    +0.000 A 
ATOM     34  F   UNL     1       6.759   2.222  -0.567  0.00  0.00    +0.000 F 
ATOM     35  C   UNL     1       2.383  -2.487   0.763  0.00  0.00    +0.000 A 
ENDBRANCH  26  29
ENDBRANCH  19  27
ENDBRANCH   1  23
TORSDOF 4
