REMARK  Name = 
REMARK  10 active torsions:
REMARK  status: ('A' for Active; 'I' for Inactive)
REMARK    1  A    between atoms: C_1  and  C_2
REMARK    2  A    between atoms: C_2  and  C_3
REMARK    3  A    between atoms: C_4  and  N_5
REMARK    4  A    between atoms: C_4  and  C_14
REMARK    5  A    between atoms: C_6  and  C_8
REMARK    6  A    between atoms: C_14  and  N_16
REMARK    7  A    between atoms: N_17  and  C_18
REMARK    8  A    between atoms: C_19  and  O_20
REMARK    9  A    between atoms: C_25  and  C_26
REMARK   10  A    between atoms: C_29  and  C_30
REMARK                            x       y       z     vdW  Elec       q    Type
REMARK                         _______ _______ _______ _____ _____    ______ ____
ROOT
ATOM      1  C   UNL     1      -0.395  -2.290   0.332  0.00  0.00    +0.000 C 
ATOM      2  C   UNL     1      -0.848  -3.461  -0.190  0.00  0.00    +0.000 C 
ENDROOT
BRANCH   2   3
ATOM      3  N   UNL     1      -0.493  -3.839  -1.566  0.00  0.00    +0.000 N 
ATOM      4  C   UNL     1      -0.983  -5.105  -2.130  0.00  0.00    +0.000 C 
ATOM      5  O   UNL     1      -0.676  -5.432  -3.319  0.00  0.00    +0.000 OA
ATOM      6  H   UNL     1       0.093  -3.223  -2.129  0.00  0.00    +0.000 HD
BRANCH   4   7
ATOM      7  C   UNL     1      -1.857  -6.023  -1.291  0.00  0.00    +0.000 A 
ATOM      8  C   UNL     1      -2.337  -7.264  -1.844  0.00  0.00    +0.000 A 
ATOM      9  C   UNL     1      -1.989  -7.634  -3.191  0.00  0.00    +0.000 A 
ATOM     10  C   UNL     1      -2.469  -8.874  -3.744  0.00  0.00    +0.000 A 
ATOM     11  C   UNL     1      -2.121  -9.244  -5.092  0.00  0.00    +0.000 A 
ATOM     12  C   UNL     1      -2.205  -5.653   0.057  0.00  0.00    +0.000 A 
ENDBRANCH   4   7
ENDBRANCH   2   3
BRANCH   1  14
ATOM     13  C   UNL     1       0.986  -0.063   0.077  0.00  0.00    +0.000 C 
ATOM     14  C   UNL     1       0.479  -1.372  -0.507  0.00  0.00    +0.000 C 
ATOM     15  C   UNL     1       0.808  -1.721  -1.780  0.00  0.00    +0.000 C 
BRANCH  15  16
ATOM     16  C   UNL     1       1.682  -0.803  -2.619  0.00  0.00    +0.000 A 
ATOM     17  C   UNL     1       2.162   0.437  -2.066  0.00  0.00    +0.000 A 
ATOM     18  C   UNL     1       1.814   0.807  -0.718  0.00  0.00    +0.000 A 
ATOM     19  C   UNL     1       2.294   2.047  -0.166  0.00  0.00    +0.000 A 
ATOM     20  C   UNL     1       1.946   2.418   1.182  0.00  0.00    +0.000 A 
ATOM     21  C   UNL     1       2.030  -1.174  -3.966  0.00  0.00    +0.000 A 
ENDBRANCH  15  16
ENDBRANCH   1  14
BRANCH   2  22
ATOM     22  C   UNL     1      -1.722  -4.380   0.649  0.00  0.00    +0.000 C 
ATOM     23  O   UNL     1      -2.029  -4.053   1.838  0.00  0.00    +0.000 OA
BRANCH  22  24
ATOM     24  N   UNL     1      -2.212  -5.645   0.084  0.00  0.00    +0.000 NA
ATOM     25  N   UNL     1      -2.943  -6.413   0.786  0.00  0.00    +0.000 NA
BRANCH  25  26
ATOM     26  C   UNL     1      -3.433  -7.679   0.222  0.00  0.00    +0.000 A 
ATOM     27  C   UNL     1      -4.261  -8.549   1.016  0.00  0.00    +0.000 A 
ATOM     28  N   UNL     1      -4.725  -9.748   0.482  0.00  0.00    +0.000 N 
ATOM     29  C   UNL     1      -4.388 -10.107  -0.821  0.00  0.00    +0.000 A 
ATOM     30  C   UNL     1      -3.560  -9.237  -1.616  0.00  0.00    +0.000 A 
ATOM     31  C   UNL     1      -3.080  -7.996  -1.064  0.00  0.00    +0.000 A 
ATOM     32  C   UNL     1      -2.252  -7.126  -1.858  0.00  0.00    +0.000 A 
ATOM     33  C   UNL     1      -1.746  -5.817  -1.275  0.00  0.00    +0.000 C 
ATOM     34  C   UNL     1      -1.905  -7.497  -3.206  0.00  0.00    +0.000 A 
ATOM     35  C   UNL     1      -4.869 -11.347  -1.374  0.00  0.00    +0.000 A 
ATOM     36  H   UNL     1      -5.311 -10.365   1.045  0.00  0.00    +0.000 HD
BRANCH  27  37
ATOM     37  O   UNL     1      -4.604  -8.184   2.345  0.00  0.00    +0.000 OA
ATOM     38  H   UNL     1      -4.270  -7.323   2.729  0.00  0.00    +0.000 HD
ENDBRANCH  27  37
ENDBRANCH  25  26
ENDBRANCH  22  24
ENDBRANCH   2  22
TORSDOF 8
