MODEL 1
REMARK VINA RESULT:    -7.645      0.000      0.000
REMARK INTER + INTRA:           9.946
REMARK INTER:                  -8.972
REMARK INTRA:                  18.918
REMARK UNBOUND:                18.931
REMARK  Name = 
REMARK  5 active torsions:
REMARK  status: ('A' for Active; 'I' for Inactive)
REMARK    1  A    between atoms: C_1  and  O_2
REMARK    2  A    between atoms: O_2  and  C_3
REMARK    3  A    between atoms: C_5  and  O_6
REMARK    4  A    between atoms: O_6  and  C_7
REMARK    5  A    between atoms: C_9  and  C_10
REMARK                            x       y       z     vdW  Elec       q    Type
REMARK                         _______ _______ _______ _____ _____    ______ ____
ROOT
ATOM      1  C   UNL     1      45.958  20.394  66.956  0.00  0.00    +0.000 A 
ATOM      2  C   UNL     1      47.312  20.471  66.469  0.00  0.00    +0.000 A 
ATOM      3  C   UNL     1      48.358  19.735  67.133  0.00  0.00    +0.000 A 
ATOM      4  O   UNL     1      49.551  19.803  66.703  0.00  0.00    +0.000 OA
ATOM      5  C   UNL     1      48.033  18.878  68.345  0.00  0.00    +0.000 A 
ATOM      6  C   UNL     1      48.855  18.938  69.457  0.00  0.00    +0.000 A 
ATOM      7  C   UNL     1      48.631  17.899  70.392  0.00  0.00    +0.000 A 
ATOM      8  C   UNL     1      47.543  17.152  70.435  0.00  0.00    +0.000 A 
ATOM      9  C   UNL     1      46.736  17.189  69.332  0.00  0.00    +0.000 A 
ATOM     10  C   UNL     1      46.967  18.086  68.317  0.00  0.00    +0.000 A 
ATOM     11  O   UNL     1      44.981  21.082  66.338  0.00  0.00    +0.000 OA
ENDROOT
BRANCH   1  16
ATOM     12  C   UNL     1      44.634  17.600  69.041  0.00  0.00    +0.000 A 
ATOM     13  C   UNL     1      44.995  17.960  70.329  0.00  0.00    +0.000 A 
ATOM     14  C   UNL     1      45.512  19.273  70.434  0.00  0.00    +0.000 A 
ATOM     15  C   UNL     1      45.965  19.983  69.418  0.00  0.00    +0.000 A 
ATOM     16  C   UNL     1      45.633  19.538  68.168  0.00  0.00    +0.000 A 
ATOM     17  C   UNL     1      45.009  18.326  67.993  0.00  0.00    +0.000 A 
BRANCH  12  19
ATOM     18  C   UNL     1      43.401  15.600  69.768  0.00  0.00    +0.000 C 
ATOM     19  O   UNL     1      43.987  16.375  68.732  0.00  0.00    +0.000 OA
ENDBRANCH  12  19
BRANCH  14  20
ATOM     20  O   UNL     1      45.547  19.867  71.723  0.00  0.00    +0.000 OA
ATOM     21  C   UNL     1      46.738  20.487  72.187  0.00  0.00    +0.000 C 
ENDBRANCH  14  20
ENDBRANCH   1  16
TORSDOF 3
ENDMDL
MODEL 2
REMARK VINA RESULT:    -7.635     14.931     16.297
REMARK INTER + INTRA:           9.957
REMARK INTER:                  -9.094
REMARK INTRA:                  19.050
REMARK UNBOUND:                18.931
REMARK  Name = 
REMARK  5 active torsions:
REMARK  status: ('A' for Active; 'I' for Inactive)
REMARK    1  A    between atoms: C_1  and  O_2
REMARK    2  A    between atoms: O_2  and  C_3
REMARK    3  A    between atoms: C_5  and  O_6
REMARK    4  A    between atoms: O_6  and  C_7
REMARK    5  A    between atoms: C_9  and  C_10
REMARK                            x       y       z     vdW  Elec       q    Type
REMARK                         _______ _______ _______ _____ _____    ______ ____
ROOT
ATOM      1  C   UNL     1      29.861  23.714  68.308  0.00  0.00    +0.000 A 
ATOM      2  C   UNL     1      30.730  23.142  67.311  0.00  0.00    +0.000 A 
ATOM      3  C   UNL     1      32.139  23.442  67.327  0.00  0.00    +0.000 A 
ATOM      4  O   UNL     1      32.904  22.936  66.447  0.00  0.00    +0.000 OA
ATOM      5  C   UNL     1      32.708  24.361  68.394  0.00  0.00    +0.000 A 
ATOM      6  C   UNL     1      33.605  25.351  68.029  0.00  0.00    +0.000 A 
ATOM      7  C   UNL     1      34.283  25.942  69.121  0.00  0.00    +0.000 A 
ATOM      8  C   UNL     1      33.889  25.863  70.379  0.00  0.00    +0.000 A 
ATOM      9  C   UNL     1      32.951  24.910  70.664  0.00  0.00    +0.000 A 
ATOM     10  C   UNL     1      32.339  24.199  69.660  0.00  0.00    +0.000 A 
ATOM     11  O   UNL     1      28.545  23.435  68.294  0.00  0.00    +0.000 OA
ENDROOT
BRANCH   1  16
ATOM     12  C   UNL     1      31.005  24.972  71.627  0.00  0.00    +0.000 A 
ATOM     13  C   UNL     1      31.429  26.262  71.355  0.00  0.00    +0.000 A 
ATOM     14  C   UNL     1      31.106  26.708  70.051  0.00  0.00    +0.000 A 
ATOM     15  C   UNL     1      30.773  25.915  69.049  0.00  0.00    +0.000 A 
ATOM     16  C   UNL     1      30.431  24.633  69.376  0.00  0.00    +0.000 A 
ATOM     17  C   UNL     1      30.594  24.163  70.657  0.00  0.00    +0.000 A 
BRANCH  12  19
ATOM     18  C   UNL     1      31.994  24.937  73.879  0.00  0.00    +0.000 C 
ATOM     19  O   UNL     1      31.122  24.374  72.909  0.00  0.00    +0.000 OA
ENDBRANCH  12  19
BRANCH  14  20
ATOM     20  O   UNL     1      31.145  28.106  69.804  0.00  0.00    +0.000 OA
ATOM     21  C   UNL     1      31.772  28.601  68.629  0.00  0.00    +0.000 C 
ENDBRANCH  14  20
ENDBRANCH   1  16
TORSDOF 3
ENDMDL
MODEL 3
REMARK VINA RESULT:    -7.579     14.297     16.086
REMARK INTER + INTRA:          10.023
REMARK INTER:                  -8.906
REMARK INTRA:                  18.929
REMARK UNBOUND:                18.931
REMARK  Name = 
REMARK  5 active torsions:
REMARK  status: ('A' for Active; 'I' for Inactive)
REMARK    1  A    between atoms: C_1  and  O_2
REMARK    2  A    between atoms: O_2  and  C_3
REMARK    3  A    between atoms: C_5  and  O_6
REMARK    4  A    between atoms: O_6  and  C_7
REMARK    5  A    between atoms: C_9  and  C_10
REMARK                            x       y       z     vdW  Elec       q    Type
REMARK                         _______ _______ _______ _____ _____    ______ ____
ROOT
ATOM      1  C   UNL     1      30.804  25.779  68.368  0.00  0.00    +0.000 A 
ATOM      2  C   UNL     1      30.583  26.072  69.761  0.00  0.00    +0.000 A 
ATOM      3  C   UNL     1      30.787  25.047  70.753  0.00  0.00    +0.000 A 
ATOM      4  O   UNL     1      30.592  25.307  71.982  0.00  0.00    +0.000 OA
ATOM      5  C   UNL     1      31.233  23.658  70.330  0.00  0.00    +0.000 A 
ATOM      6  C   UNL     1      30.611  22.549  70.879  0.00  0.00    +0.000 A 
ATOM      7  C   UNL     1      31.293  21.333  70.642  0.00  0.00    +0.000 A 
ATOM      8  C   UNL     1      32.213  21.160  69.711  0.00  0.00    +0.000 A 
ATOM      9  C   UNL     1      32.741  22.293  69.158  0.00  0.00    +0.000 A 
ATOM     10  C   UNL     1      32.213  23.529  69.443  0.00  0.00    +0.000 A 
ATOM     11  O   UNL     1      30.614  26.735  67.440  0.00  0.00    +0.000 OA
ENDROOT
BRANCH   1  16
ATOM     12  C   UNL     1      32.945  23.002  67.099  0.00  0.00    +0.000 A 
ATOM     13  C   UNL     1      32.106  21.901  67.141  0.00  0.00    +0.000 A 
ATOM     14  C   UNL     1      30.756  22.221  67.423  0.00  0.00    +0.000 A 
ATOM     15  C   UNL     1      30.351  23.359  67.954  0.00  0.00    +0.000 A 
ATOM     16  C   UNL     1      31.251  24.389  67.945  0.00  0.00    +0.000 A 
ATOM     17  C   UNL     1      32.553  24.185  67.558  0.00  0.00    +0.000 A 
BRANCH  12  19
ATOM     18  C   UNL     1      34.879  21.662  66.378  0.00  0.00    +0.000 C 
ATOM     19  O   UNL     1      34.311  22.919  66.718  0.00  0.00    +0.000 OA
ENDBRANCH  12  19
BRANCH  14  20
ATOM     20  O   UNL     1      29.770  21.247  67.114  0.00  0.00    +0.000 OA
ATOM     21  C   UNL     1      28.667  21.052  67.989  0.00  0.00    +0.000 C 
ENDBRANCH  14  20
ENDBRANCH   1  16
TORSDOF 3
ENDMDL
MODEL 4
REMARK VINA RESULT:    -7.484     14.982     16.622
REMARK INTER + INTRA:          10.135
REMARK INTER:                  -8.846
REMARK INTRA:                  18.981
REMARK UNBOUND:                18.931
REMARK  Name = 
REMARK  5 active torsions:
REMARK  status: ('A' for Active; 'I' for Inactive)
REMARK    1  A    between atoms: C_1  and  O_2
REMARK    2  A    between atoms: O_2  and  C_3
REMARK    3  A    between atoms: C_5  and  O_6
REMARK    4  A    between atoms: O_6  and  C_7
REMARK    5  A    between atoms: C_9  and  C_10
REMARK                            x       y       z     vdW  Elec       q    Type
REMARK                         _______ _______ _______ _____ _____    ______ ____
ROOT
ATOM      1  C   UNL     1      33.075  24.437  68.021  0.00  0.00    +0.000 A 
ATOM      2  C   UNL     1      32.011  23.585  68.487  0.00  0.00    +0.000 A 
ATOM      3  C   UNL     1      31.021  24.102  69.398  0.00  0.00    +0.000 A 
ATOM      4  O   UNL     1      30.083  23.350  69.808  0.00  0.00    +0.000 OA
ATOM      5  C   UNL     1      31.101  25.545  69.866  0.00  0.00    +0.000 A 
ATOM      6  C   UNL     1      30.916  25.833  71.208  0.00  0.00    +0.000 A 
ATOM      7  C   UNL     1      30.721  27.208  71.478  0.00  0.00    +0.000 A 
ATOM      8  C   UNL     1      31.031  28.186  70.646  0.00  0.00    +0.000 A 
ATOM      9  C   UNL     1      31.269  27.828  69.348  0.00  0.00    +0.000 A 
ATOM     10  C   UNL     1      31.345  26.506  68.983  0.00  0.00    +0.000 A 
ATOM     11  O   UNL     1      34.000  23.954  67.171  0.00  0.00    +0.000 OA
ENDROOT
BRANCH   1  16
ATOM     12  C   UNL     1      32.935  28.163  67.988  0.00  0.00    +0.000 A 
ATOM     13  C   UNL     1      33.307  28.511  69.276  0.00  0.00    +0.000 A 
ATOM     14  C   UNL     1      33.789  27.427  70.046  0.00  0.00    +0.000 A 
ATOM     15  C   UNL     1      33.588  26.155  69.757  0.00  0.00    +0.000 A 
ATOM     16  C   UNL     1      33.154  25.880  68.490  0.00  0.00    +0.000 A 
ATOM     17  C   UNL     1      32.790  26.891  67.634  0.00  0.00    +0.000 A 
BRANCH  12  19
ATOM     18  C   UNL     1      33.004  30.454  67.095  0.00  0.00    +0.000 C 
ATOM     19  O   UNL     1      32.536  29.115  67.013  0.00  0.00    +0.000 OA
ENDBRANCH  12  19
BRANCH  14  20
ATOM     20  O   UNL     1      34.540  27.729  71.213  0.00  0.00    +0.000 OA
ATOM     21  C   UNL     1      35.070  29.034  71.397  0.00  0.00    +0.000 C 
ENDBRANCH  14  20
ENDBRANCH   1  16
TORSDOF 3
ENDMDL
MODEL 5
REMARK VINA RESULT:    -7.445     14.584     16.078
REMARK INTER + INTRA:          10.181
REMARK INTER:                  -8.750
REMARK INTRA:                  18.931
REMARK UNBOUND:                18.931
REMARK  Name = 
REMARK  5 active torsions:
REMARK  status: ('A' for Active; 'I' for Inactive)
REMARK    1  A    between atoms: C_1  and  O_2
REMARK    2  A    between atoms: O_2  and  C_3
REMARK    3  A    between atoms: C_5  and  O_6
REMARK    4  A    between atoms: O_6  and  C_7
REMARK    5  A    between atoms: C_9  and  C_10
REMARK                            x       y       z     vdW  Elec       q    Type
REMARK                         _______ _______ _______ _____ _____    ______ ____
ROOT
ATOM      1  C   UNL     1      34.362  27.597  70.458  0.00  0.00    +0.000 A 
ATOM      2  C   UNL     1      33.927  28.621  69.543  0.00  0.00    +0.000 A 
ATOM      3  C   UNL     1      32.752  28.413  68.735  0.00  0.00    +0.000 A 
ATOM      4  O   UNL     1      32.369  29.317  67.929  0.00  0.00    +0.000 OA
ATOM      5  C   UNL     1      31.974  27.113  68.848  0.00  0.00    +0.000 A 
ATOM      6  C   UNL     1      31.558  26.469  67.695  0.00  0.00    +0.000 A 
ATOM      7  C   UNL     1      30.606  25.447  67.920  0.00  0.00    +0.000 A 
ATOM      8  C   UNL     1      30.377  24.881  69.091  0.00  0.00    +0.000 A 
ATOM      9  C   UNL     1      30.872  25.531  70.188  0.00  0.00    +0.000 A 
ATOM     10  C   UNL     1      31.703  26.616  70.050  0.00  0.00    +0.000 A 
ATOM     11  O   UNL     1      35.459  27.791  71.213  0.00  0.00    +0.000 OA
ENDROOT
BRANCH   1  16
ATOM     12  C   UNL     1      32.143  24.928  71.822  0.00  0.00    +0.000 A 
ATOM     13  C   UNL     1      32.174  23.951  70.841  0.00  0.00    +0.000 A 
ATOM     14  C   UNL     1      33.137  24.183  69.830  0.00  0.00    +0.000 A 
ATOM     15  C   UNL     1      33.707  25.349  69.594  0.00  0.00    +0.000 A 
ATOM     16  C   UNL     1      33.583  26.297  70.571  0.00  0.00    +0.000 A 
ATOM     17  C   UNL     1      32.764  26.090  71.655  0.00  0.00    +0.000 A 
BRANCH  12  19
ATOM     18  C   UNL     1      31.936  24.889  74.273  0.00  0.00    +0.000 C 
ATOM     19  O   UNL     1      31.337  24.831  72.986  0.00  0.00    +0.000 OA
ENDBRANCH  12  19
BRANCH  14  20
ATOM     20  O   UNL     1      33.513  23.084  69.013  0.00  0.00    +0.000 OA
ATOM     21  C   UNL     1      33.577  23.239  67.602  0.00  0.00    +0.000 C 
ENDBRANCH  14  20
ENDBRANCH   1  16
TORSDOF 3
ENDMDL
