MODEL 1
REMARK VINA RESULT:    -7.673      0.000      0.000
REMARK INTER + INTRA:         -11.570
REMARK INTER:                 -10.831
REMARK INTRA:                  -0.740
REMARK UNBOUND:                -0.757
REMARK  Name = 
REMARK  11 active torsions:
REMARK  status: ('A' for Active; 'I' for Inactive)
REMARK    1  A    between atoms: C_1  and  O_2
REMARK    2  A    between atoms: O_2  and  C_3
REMARK    3  A    between atoms: C_6  and  C_7
REMARK    4  A    between atoms: C_8  and  C_9
REMARK    5  A    between atoms: C_9  and  C_11
REMARK    6  A    between atoms: C_13  and  O_14
REMARK    7  A    between atoms: O_14  and  C_15
REMARK    8  A    between atoms: C_16  and  O_17
REMARK    9  A    between atoms: O_17  and  C_18
REMARK   10  A    between atoms: C_19  and  O_20
REMARK   11  A    between atoms: O_20  and  C_21
REMARK                            x       y       z     vdW  Elec       q    Type
REMARK                         _______ _______ _______ _____ _____    ______ ____
ROOT
ATOM      1  C   UNL     1      34.404  24.176  67.935  0.00  0.00    +0.000 C 
ATOM      2  O   UNL     1      35.114  24.059  66.887  0.00  0.00    +0.000 OA
ENDROOT
BRANCH   1   3
ATOM      3  C   UNL     1      33.520  23.025  68.386  0.00  0.00    +0.000 A 
ATOM      4  C   UNL     1      32.912  22.218  67.439  0.00  0.00    +0.000 A 
ATOM      5  C   UNL     1      31.902  21.377  67.964  0.00  0.00    +0.000 A 
ATOM      6  C   UNL     1      31.762  21.085  69.245  0.00  0.00    +0.000 A 
ATOM      7  C   UNL     1      32.442  21.877  70.128  0.00  0.00    +0.000 A 
ATOM      8  C   UNL     1      33.349  22.810  69.685  0.00  0.00    +0.000 A 
BRANCH   5   9
ATOM      9  O   UNL     1      30.974  20.809  67.052  0.00  0.00    +0.000 OA
ATOM     10  C   UNL     1      30.377  21.619  66.050  0.00  0.00    +0.000 C 
ENDBRANCH   5   9
BRANCH   6  11
ATOM     11  O   UNL     1      30.950  20.005  69.681  0.00  0.00    +0.000 OA
ATOM     12  C   UNL     1      31.488  18.693  69.748  0.00  0.00    +0.000 C 
ENDBRANCH   6  11
BRANCH   7  13
ATOM     13  O   UNL     1      32.208  21.733  71.520  0.00  0.00    +0.000 OA
ATOM     14  C   UNL     1      31.232  22.540  72.163  0.00  0.00    +0.000 C 
ENDBRANCH   7  13
ENDBRANCH   1   3
BRANCH   1  16
ATOM     15  C   UNL     1      35.513  25.751  69.520  0.00  0.00    +0.000 C 
ATOM     16  C   UNL     1      34.439  25.466  68.737  0.00  0.00    +0.000 C 
BRANCH  15  20
ATOM     17  C   UNL     1      35.563  29.497  71.574  0.00  0.00    +0.000 A 
ATOM     18  C   UNL     1      34.347  28.864  71.373  0.00  0.00    +0.000 A 
ATOM     19  C   UNL     1      34.462  27.541  70.886  0.00  0.00    +0.000 A 
ATOM     20  C   UNL     1      35.548  27.042  70.323  0.00  0.00    +0.000 A 
ATOM     21  C   UNL     1      36.705  27.749  70.500  0.00  0.00    +0.000 A 
ATOM     22  C   UNL     1      36.691  28.992  71.086  0.00  0.00    +0.000 A 
BRANCH  17  24
ATOM     23  C   UNL     1      36.851  31.236  72.741  0.00  0.00    +0.000 C 
ATOM     24  O   UNL     1      35.604  30.708  72.313  0.00  0.00    +0.000 OA
ENDBRANCH  17  24
ENDBRANCH  15  20
ENDBRANCH   1  16
TORSDOF 7
ENDMDL
MODEL 2
REMARK VINA RESULT:    -7.666      2.495      9.011
REMARK INTER + INTRA:         -11.561
REMARK INTER:                 -10.799
REMARK INTRA:                  -0.761
REMARK UNBOUND:                -0.757
REMARK  Name = 
REMARK  11 active torsions:
REMARK  status: ('A' for Active; 'I' for Inactive)
REMARK    1  A    between atoms: C_1  and  O_2
REMARK    2  A    between atoms: O_2  and  C_3
REMARK    3  A    between atoms: C_6  and  C_7
REMARK    4  A    between atoms: C_8  and  C_9
REMARK    5  A    between atoms: C_9  and  C_11
REMARK    6  A    between atoms: C_13  and  O_14
REMARK    7  A    between atoms: O_14  and  C_15
REMARK    8  A    between atoms: C_16  and  O_17
REMARK    9  A    between atoms: O_17  and  C_18
REMARK   10  A    between atoms: C_19  and  O_20
REMARK   11  A    between atoms: O_20  and  C_21
REMARK                            x       y       z     vdW  Elec       q    Type
REMARK                         _______ _______ _______ _____ _____    ______ ____
ROOT
ATOM      1  C   UNL     1      31.504  22.957  72.041  0.00  0.00    +0.000 C 
ATOM      2  O   UNL     1      30.983  22.980  73.200  0.00  0.00    +0.000 OA
ENDROOT
BRANCH   1   3
ATOM      3  C   UNL     1      32.270  24.166  71.529  0.00  0.00    +0.000 A 
ATOM      4  C   UNL     1      31.909  25.434  71.953  0.00  0.00    +0.000 A 
ATOM      5  C   UNL     1      32.494  26.480  71.201  0.00  0.00    +0.000 A 
ATOM      6  C   UNL     1      33.547  26.339  70.416  0.00  0.00    +0.000 A 
ATOM      7  C   UNL     1      33.894  25.058  70.087  0.00  0.00    +0.000 A 
ATOM      8  C   UNL     1      33.278  23.984  70.684  0.00  0.00    +0.000 A 
BRANCH   5   9
ATOM      9  O   UNL     1      31.907  27.770  71.294  0.00  0.00    +0.000 OA
ATOM     10  C   UNL     1      30.776  28.094  70.501  0.00  0.00    +0.000 C 
ENDBRANCH   5   9
BRANCH   6  11
ATOM     11  O   UNL     1      34.279  27.458  69.940  0.00  0.00    +0.000 OA
ATOM     12  C   UNL     1      35.331  28.004  70.722  0.00  0.00    +0.000 C 
ENDBRANCH   6  11
BRANCH   7  13
ATOM     13  O   UNL     1      34.904  24.835  69.115  0.00  0.00    +0.000 OA
ATOM     14  C   UNL     1      34.547  24.469  67.790  0.00  0.00    +0.000 C 
ENDBRANCH   7  13
ENDBRANCH   1   3
BRANCH   1  16
ATOM     15  C   UNL     1      32.076  20.600  71.455  0.00  0.00    +0.000 C 
ATOM     16  C   UNL     1      31.363  21.722  71.167  0.00  0.00    +0.000 C 
BRANCH  15  20
ATOM     17  C   UNL     1      31.443  17.139  69.033  0.00  0.00    +0.000 A 
ATOM     18  C   UNL     1      31.313  18.390  68.452  0.00  0.00    +0.000 A 
ATOM     19  C   UNL     1      31.754  19.452  69.275  0.00  0.00    +0.000 A 
ATOM     20  C   UNL     1      31.934  19.364  70.581  0.00  0.00    +0.000 A 
ATOM     21  C   UNL     1      31.986  18.103  71.103  0.00  0.00    +0.000 A 
ATOM     22  C   UNL     1      31.695  17.004  70.330  0.00  0.00    +0.000 A 
BRANCH  17  24
ATOM     23  C   UNL     1      31.078  14.715  68.833  0.00  0.00    +0.000 C 
ATOM     24  O   UNL     1      31.302  15.979  68.226  0.00  0.00    +0.000 OA
ENDBRANCH  17  24
ENDBRANCH  15  20
ENDBRANCH   1  16
TORSDOF 7
ENDMDL
MODEL 3
REMARK VINA RESULT:    -7.592      3.232      8.932
REMARK INTER + INTRA:         -11.456
REMARK INTER:                 -10.708
REMARK INTRA:                  -0.748
REMARK UNBOUND:                -0.757
REMARK  Name = 
REMARK  11 active torsions:
REMARK  status: ('A' for Active; 'I' for Inactive)
REMARK    1  A    between atoms: C_1  and  O_2
REMARK    2  A    between atoms: O_2  and  C_3
REMARK    3  A    between atoms: C_6  and  C_7
REMARK    4  A    between atoms: C_8  and  C_9
REMARK    5  A    between atoms: C_9  and  C_11
REMARK    6  A    between atoms: C_13  and  O_14
REMARK    7  A    between atoms: O_14  and  C_15
REMARK    8  A    between atoms: C_16  and  O_17
REMARK    9  A    between atoms: O_17  and  C_18
REMARK   10  A    between atoms: C_19  and  O_20
REMARK   11  A    between atoms: O_20  and  C_21
REMARK                            x       y       z     vdW  Elec       q    Type
REMARK                         _______ _______ _______ _____ _____    ______ ____
ROOT
ATOM      1  C   UNL     1      31.592  22.790  71.536  0.00  0.00    +0.000 C 
ATOM      2  O   UNL     1      30.998  23.081  72.621  0.00  0.00    +0.000 OA
ENDROOT
BRANCH   1   3
ATOM      3  C   UNL     1      31.989  23.892  70.568  0.00  0.00    +0.000 A 
ATOM      4  C   UNL     1      33.166  23.776  69.847  0.00  0.00    +0.000 A 
ATOM      5  C   UNL     1      33.567  24.974  69.208  0.00  0.00    +0.000 A 
ATOM      6  C   UNL     1      32.774  26.006  68.985  0.00  0.00    +0.000 A 
ATOM      7  C   UNL     1      31.595  26.028  69.678  0.00  0.00    +0.000 A 
ATOM      8  C   UNL     1      31.197  24.948  70.427  0.00  0.00    +0.000 A 
BRANCH   5   9
ATOM      9  O   UNL     1      34.917  25.073  68.778  0.00  0.00    +0.000 OA
ATOM     10  C   UNL     1      35.899  25.625  69.641  0.00  0.00    +0.000 C 
ENDBRANCH   5   9
BRANCH   6  11
ATOM     11  O   UNL     1      33.126  27.037  68.075  0.00  0.00    +0.000 OA
ATOM     12  C   UNL     1      32.783  26.920  66.702  0.00  0.00    +0.000 C 
ENDBRANCH   6  11
BRANCH   7  13
ATOM     13  O   UNL     1      30.772  27.184  69.621  0.00  0.00    +0.000 OA
ATOM     14  C   UNL     1      30.389  27.842  70.820  0.00  0.00    +0.000 C 
ENDBRANCH   7  13
ENDBRANCH   1   3
BRANCH   1  16
ATOM     15  C   UNL     1      31.176  20.686  70.260  0.00  0.00    +0.000 C 
ATOM     16  C   UNL     1      31.904  21.340  71.205  0.00  0.00    +0.000 C 
BRANCH  15  20
ATOM     17  C   UNL     1      31.821  16.561  69.355  0.00  0.00    +0.000 A 
ATOM     18  C   UNL     1      31.428  17.413  68.335  0.00  0.00    +0.000 A 
ATOM     19  C   UNL     1      31.456  18.782  68.689  0.00  0.00    +0.000 A 
ATOM     20  C   UNL     1      31.488  19.235  69.929  0.00  0.00    +0.000 A 
ATOM     21  C   UNL     1      31.816  18.329  70.899  0.00  0.00    +0.000 A 
ATOM     22  C   UNL     1      31.935  16.992  70.606  0.00  0.00    +0.000 A 
BRANCH  17  24
ATOM     23  C   UNL     1      31.055  14.326  68.671  0.00  0.00    +0.000 C 
ATOM     24  O   UNL     1      32.104  15.202  69.058  0.00  0.00    +0.000 OA
ENDBRANCH  17  24
ENDBRANCH  15  20
ENDBRANCH   1  16
TORSDOF 7
ENDMDL
MODEL 4
REMARK VINA RESULT:    -7.529      2.638      8.695
REMARK INTER + INTRA:         -11.367
REMARK INTER:                 -10.689
REMARK INTRA:                  -0.678
REMARK UNBOUND:                -0.757
REMARK  Name = 
REMARK  11 active torsions:
REMARK  status: ('A' for Active; 'I' for Inactive)
REMARK    1  A    between atoms: C_1  and  O_2
REMARK    2  A    between atoms: O_2  and  C_3
REMARK    3  A    between atoms: C_6  and  C_7
REMARK    4  A    between atoms: C_8  and  C_9
REMARK    5  A    between atoms: C_9  and  C_11
REMARK    6  A    between atoms: C_13  and  O_14
REMARK    7  A    between atoms: O_14  and  C_15
REMARK    8  A    between atoms: C_16  and  O_17
REMARK    9  A    between atoms: O_17  and  C_18
REMARK   10  A    between atoms: C_19  and  O_20
REMARK   11  A    between atoms: O_20  and  C_21
REMARK                            x       y       z     vdW  Elec       q    Type
REMARK                         _______ _______ _______ _____ _____    ______ ____
ROOT
ATOM      1  C   UNL     1      31.508  22.968  71.226  0.00  0.00    +0.000 C 
ATOM      2  O   UNL     1      31.406  23.511  72.370  0.00  0.00    +0.000 OA
ENDROOT
BRANCH   1   3
ATOM      3  C   UNL     1      32.015  23.777  70.043  0.00  0.00    +0.000 A 
ATOM      4  C   UNL     1      31.725  23.360  68.755  0.00  0.00    +0.000 A 
ATOM      5  C   UNL     1      32.479  24.018  67.754  0.00  0.00    +0.000 A 
ATOM      6  C   UNL     1      33.129  25.153  67.933  0.00  0.00    +0.000 A 
ATOM      7  C   UNL     1      33.326  25.546  69.228  0.00  0.00    +0.000 A 
ATOM      8  C   UNL     1      32.727  24.875  70.267  0.00  0.00    +0.000 A 
BRANCH   5   9
ATOM      9  O   UNL     1      32.543  23.414  66.471  0.00  0.00    +0.000 OA
ATOM     10  C   UNL     1      31.855  22.197  66.223  0.00  0.00    +0.000 C 
ENDBRANCH   5   9
BRANCH   6  11
ATOM     11  O   UNL     1      33.599  25.926  66.838  0.00  0.00    +0.000 OA
ATOM     12  C   UNL     1      32.811  26.995  66.333  0.00  0.00    +0.000 C 
ENDBRANCH   6  11
BRANCH   7  13
ATOM     13  O   UNL     1      34.160  26.661  69.502  0.00  0.00    +0.000 OA
ATOM     14  C   UNL     1      33.584  27.899  69.894  0.00  0.00    +0.000 C 
ENDBRANCH   7  13
ENDBRANCH   1   3
BRANCH   1  16
ATOM     15  C   UNL     1      32.060  20.601  70.661  0.00  0.00    +0.000 C 
ATOM     16  C   UNL     1      31.122  21.510  71.039  0.00  0.00    +0.000 C 
BRANCH  15  20
ATOM     17  C   UNL     1      30.769  16.550  70.245  0.00  0.00    +0.000 A 
ATOM     18  C   UNL     1      30.364  17.478  69.299  0.00  0.00    +0.000 A 
ATOM     19  C   UNL     1      31.019  18.727  69.405  0.00  0.00    +0.000 A 
ATOM     20  C   UNL     1      31.674  19.142  70.475  0.00  0.00    +0.000 A 
ATOM     21  C   UNL     1      31.986  18.190  71.404  0.00  0.00    +0.000 A 
ATOM     22  C   UNL     1      31.491  16.912  71.300  0.00  0.00    +0.000 A 
BRANCH  17  24
ATOM     23  C   UNL     1      30.701  14.512  68.871  0.00  0.00    +0.000 C 
ATOM     24  O   UNL     1      30.405  15.188  70.085  0.00  0.00    +0.000 OA
ENDBRANCH  17  24
ENDBRANCH  15  20
ENDBRANCH   1  16
TORSDOF 7
ENDMDL
MODEL 5
REMARK VINA RESULT:    -7.462      2.384      8.608
REMARK INTER + INTRA:         -11.273
REMARK INTER:                 -10.516
REMARK INTRA:                  -0.757
REMARK UNBOUND:                -0.757
REMARK  Name = 
REMARK  11 active torsions:
REMARK  status: ('A' for Active; 'I' for Inactive)
REMARK    1  A    between atoms: C_1  and  O_2
REMARK    2  A    between atoms: O_2  and  C_3
REMARK    3  A    between atoms: C_6  and  C_7
REMARK    4  A    between atoms: C_8  and  C_9
REMARK    5  A    between atoms: C_9  and  C_11
REMARK    6  A    between atoms: C_13  and  O_14
REMARK    7  A    between atoms: O_14  and  C_15
REMARK    8  A    between atoms: C_16  and  O_17
REMARK    9  A    between atoms: O_17  and  C_18
REMARK   10  A    between atoms: C_19  and  O_20
REMARK   11  A    between atoms: O_20  and  C_21
REMARK                            x       y       z     vdW  Elec       q    Type
REMARK                         _______ _______ _______ _____ _____    ______ ____
ROOT
ATOM      1  C   UNL     1      33.150  23.650  67.980  0.00  0.00    +0.000 C 
ATOM      2  O   UNL     1      33.147  23.746  66.713  0.00  0.00    +0.000 OA
ENDROOT
BRANCH   1   3
ATOM      3  C   UNL     1      33.363  24.888  68.836  0.00  0.00    +0.000 A 
ATOM      4  C   UNL     1      33.555  24.752  70.200  0.00  0.00    +0.000 A 
ATOM      5  C   UNL     1      33.455  25.967  70.919  0.00  0.00    +0.000 A 
ATOM      6  C   UNL     1      33.534  27.167  70.374  0.00  0.00    +0.000 A 
ATOM      7  C   UNL     1      33.404  27.229  69.014  0.00  0.00    +0.000 A 
ATOM      8  C   UNL     1      33.365  26.083  68.256  0.00  0.00    +0.000 A 
BRANCH   5   9
ATOM      9  O   UNL     1      33.253  25.890  72.322  0.00  0.00    +0.000 OA
ATOM     10  C   UNL     1      32.160  25.149  72.843  0.00  0.00    +0.000 C 
ENDBRANCH   5   9
BRANCH   6  11
ATOM     11  O   UNL     1      33.745  28.332  71.158  0.00  0.00    +0.000 OA
ATOM     12  C   UNL     1      35.050  28.879  71.282  0.00  0.00    +0.000 C 
ENDBRANCH   6  11
BRANCH   7  13
ATOM     13  O   UNL     1      33.308  28.494  68.377  0.00  0.00    +0.000 OA
ATOM     14  C   UNL     1      32.047  28.969  67.928  0.00  0.00    +0.000 C 
ENDBRANCH   7  13
ENDBRANCH   1   3
BRANCH   1  16
ATOM     15  C   UNL     1      31.699  21.747  68.688  0.00  0.00    +0.000 C 
ATOM     16  C   UNL     1      32.942  22.298  68.641  0.00  0.00    +0.000 C 
BRANCH  15  20
ATOM     17  C   UNL     1      31.319  17.874  70.449  0.00  0.00    +0.000 A 
ATOM     18  C   UNL     1      32.073  18.833  71.107  0.00  0.00    +0.000 A 
ATOM     19  C   UNL     1      31.955  20.131  70.557  0.00  0.00    +0.000 A 
ATOM     20  C   UNL     1      31.491  20.394  69.349  0.00  0.00    +0.000 A 
ATOM     21  C   UNL     1      30.813  19.384  68.725  0.00  0.00    +0.000 A 
ATOM     22  C   UNL     1      30.774  18.120  69.264  0.00  0.00    +0.000 A 
BRANCH  17  24
ATOM     23  C   UNL     1      30.098  15.744  70.589  0.00  0.00    +0.000 C 
ATOM     24  O   UNL     1      31.128  16.604  71.054  0.00  0.00    +0.000 OA
ENDBRANCH  17  24
ENDBRANCH  15  20
ENDBRANCH   1  16
TORSDOF 7
ENDMDL
