MODEL 1
REMARK VINA RESULT:    -7.350      0.000      0.000
REMARK INTER + INTRA:         -13.476
REMARK INTER:                 -10.393
REMARK INTRA:                  -3.083
REMARK UNBOUND:                -2.473
REMARK  Name = 
REMARK  10 active torsions:
REMARK  status: ('A' for Active; 'I' for Inactive)
REMARK    1  A    between atoms: C_1  and  O_2
REMARK    2  A    between atoms: O_2  and  C_3
REMARK    3  A    between atoms: C_5  and  C_6
REMARK    4  A    between atoms: C_7  and  C_8
REMARK    5  A    between atoms: C_8  and  C_10
REMARK    6  A    between atoms: C_10  and  C_11
REMARK    7  A    between atoms: C_11  and  C_12
REMARK    8  A    between atoms: C_12  and  C_13
REMARK    9  A    between atoms: C_13  and  C_14
REMARK   10  A    between atoms: C_22  and  O_23
REMARK                            x       y       z     vdW  Elec       q    Type
REMARK                         _______ _______ _______ _____ _____    ______ ____
ROOT
ATOM      1  C   UNL     1      34.206  24.401  68.475  0.00  0.00    +0.000 C 
ATOM      2  C   UNL     1      33.138  24.020  67.723  0.00  0.00    +0.000 C 
ENDROOT
BRANCH   1   5
ATOM      3  C   UNL     1      33.432  28.042  69.126  0.00  0.00    +0.000 A 
ATOM      4  C   UNL     1      33.369  26.764  68.622  0.00  0.00    +0.000 A 
ATOM      5  C   UNL     1      34.267  25.806  69.051  0.00  0.00    +0.000 A 
ATOM      6  C   UNL     1      35.214  26.118  69.995  0.00  0.00    +0.000 A 
ATOM      7  C   UNL     1      35.268  27.387  70.529  0.00  0.00    +0.000 A 
ATOM      8  C   UNL     1      34.375  28.381  70.119  0.00  0.00    +0.000 A 
BRANCH   3  10
ATOM      9  C   UNL     1      32.726  29.449  67.336  0.00  0.00    +0.000 C 
ATOM     10  O   UNL     1      32.544  28.944  68.652  0.00  0.00    +0.000 OA
ENDBRANCH   3  10
BRANCH   8  11
ATOM     11  O   UNL     1      34.416  29.684  70.680  0.00  0.00    +0.000 OA
ATOM     12  H   UNL     1      34.620  30.472  70.099  0.00  0.00    +0.000 HD
ENDBRANCH   8  11
ENDBRANCH   1   5
BRANCH   2  13
ATOM     13  C   UNL     1      33.077  22.615  67.147  0.00  0.00    +0.000 C 
ATOM     14  O   UNL     1      33.982  22.215  66.348  0.00  0.00    +0.000 OA
BRANCH  13  15
ATOM     15  C   UNL     1      31.933  21.687  67.524  0.00  0.00    +0.000 C 
BRANCH  15  16
ATOM     16  C   UNL     1      32.308  20.902  68.770  0.00  0.00    +0.000 C 
BRANCH  16  17
ATOM     17  C   UNL     1      31.469  21.383  69.944  0.00  0.00    +0.000 C 
BRANCH  17  18
ATOM     18  C   UNL     1      32.356  22.131  70.926  0.00  0.00    +0.000 C 
BRANCH  18  19
ATOM     19  C   UNL     1      31.813  23.536  71.132  0.00  0.00    +0.000 A 
ATOM     20  C   UNL     1      30.707  23.978  70.427  0.00  0.00    +0.000 A 
ATOM     21  C   UNL     1      30.518  25.380  70.476  0.00  0.00    +0.000 A 
ATOM     22  C   UNL     1      31.077  26.180  71.365  0.00  0.00    +0.000 A 
ATOM     23  C   UNL     1      32.122  25.661  72.079  0.00  0.00    +0.000 A 
ATOM     24  C   UNL     1      32.449  24.330  71.986  0.00  0.00    +0.000 A 
ENDBRANCH  18  19
ENDBRANCH  17  18
ENDBRANCH  16  17
ENDBRANCH  15  16
ENDBRANCH  13  15
ENDBRANCH   2  13
TORSDOF 9
ENDMDL
MODEL 2
REMARK VINA RESULT:    -7.207      2.108      6.027
REMARK INTER + INTRA:         -13.261
REMARK INTER:                 -10.125
REMARK INTRA:                  -3.136
REMARK UNBOUND:                -2.473
REMARK  Name = 
REMARK  10 active torsions:
REMARK  status: ('A' for Active; 'I' for Inactive)
REMARK    1  A    between atoms: C_1  and  O_2
REMARK    2  A    between atoms: O_2  and  C_3
REMARK    3  A    between atoms: C_5  and  C_6
REMARK    4  A    between atoms: C_7  and  C_8
REMARK    5  A    between atoms: C_8  and  C_10
REMARK    6  A    between atoms: C_10  and  C_11
REMARK    7  A    between atoms: C_11  and  C_12
REMARK    8  A    between atoms: C_12  and  C_13
REMARK    9  A    between atoms: C_13  and  C_14
REMARK   10  A    between atoms: C_22  and  O_23
REMARK                            x       y       z     vdW  Elec       q    Type
REMARK                         _______ _______ _______ _____ _____    ______ ____
ROOT
ATOM      1  C   UNL     1      33.871  24.247  68.179  0.00  0.00    +0.000 C 
ATOM      2  C   UNL     1      34.327  24.419  69.449  0.00  0.00    +0.000 C 
ENDROOT
BRANCH   1   5
ATOM      3  C   UNL     1      32.300  20.812  68.295  0.00  0.00    +0.000 A 
ATOM      4  C   UNL     1      33.075  21.904  68.608  0.00  0.00    +0.000 A 
ATOM      5  C   UNL     1      32.997  23.050  67.841  0.00  0.00    +0.000 A 
ATOM      6  C   UNL     1      32.134  23.113  66.775  0.00  0.00    +0.000 A 
ATOM      7  C   UNL     1      31.331  22.036  66.469  0.00  0.00    +0.000 A 
ATOM      8  C   UNL     1      31.383  20.860  67.224  0.00  0.00    +0.000 A 
BRANCH   3  10
ATOM      9  C   UNL     1      31.739  19.653  70.302  0.00  0.00    +0.000 C 
ATOM     10  O   UNL     1      32.436  19.709  69.066  0.00  0.00    +0.000 OA
ENDBRANCH   3  10
BRANCH   8  11
ATOM     11  O   UNL     1      30.545  19.754  66.924  0.00  0.00    +0.000 OA
ATOM     12  H   UNL     1      29.814  19.850  66.248  0.00  0.00    +0.000 HD
ENDBRANCH   8  11
ENDBRANCH   1   5
BRANCH   2  13
ATOM     13  C   UNL     1      35.201  25.616  69.787  0.00  0.00    +0.000 C 
ATOM     14  O   UNL     1      36.431  25.617  69.465  0.00  0.00    +0.000 OA
BRANCH  13  15
ATOM     15  C   UNL     1      34.605  26.812  70.511  0.00  0.00    +0.000 C 
BRANCH  15  16
ATOM     16  C   UNL     1      33.597  27.501  69.606  0.00  0.00    +0.000 C 
BRANCH  16  17
ATOM     17  C   UNL     1      32.207  27.382  70.212  0.00  0.00    +0.000 C 
BRANCH  17  18
ATOM     18  C   UNL     1      31.253  26.802  69.181  0.00  0.00    +0.000 C 
BRANCH  18  19
ATOM     19  C   UNL     1      30.706  25.477  69.685  0.00  0.00    +0.000 A 
ATOM     20  C   UNL     1      31.100  24.968  70.911  0.00  0.00    +0.000 A 
ATOM     21  C   UNL     1      30.773  23.604  71.098  0.00  0.00    +0.000 A 
ATOM     22  C   UNL     1      29.881  22.943  70.384  0.00  0.00    +0.000 A 
ATOM     23  C   UNL     1      29.481  23.531  69.215  0.00  0.00    +0.000 A 
ATOM     24  C   UNL     1      29.865  24.812  68.901  0.00  0.00    +0.000 A 
ENDBRANCH  18  19
ENDBRANCH  17  18
ENDBRANCH  16  17
ENDBRANCH  15  16
ENDBRANCH  13  15
ENDBRANCH   2  13
TORSDOF 9
ENDMDL
MODEL 3
REMARK VINA RESULT:    -7.160      2.756      7.222
REMARK INTER + INTRA:         -13.190
REMARK INTER:                 -10.200
REMARK INTRA:                  -2.990
REMARK UNBOUND:                -2.473
REMARK  Name = 
REMARK  10 active torsions:
REMARK  status: ('A' for Active; 'I' for Inactive)
REMARK    1  A    between atoms: C_1  and  O_2
REMARK    2  A    between atoms: O_2  and  C_3
REMARK    3  A    between atoms: C_5  and  C_6
REMARK    4  A    between atoms: C_7  and  C_8
REMARK    5  A    between atoms: C_8  and  C_10
REMARK    6  A    between atoms: C_10  and  C_11
REMARK    7  A    between atoms: C_11  and  C_12
REMARK    8  A    between atoms: C_12  and  C_13
REMARK    9  A    between atoms: C_13  and  C_14
REMARK   10  A    between atoms: C_22  and  O_23
REMARK                            x       y       z     vdW  Elec       q    Type
REMARK                         _______ _______ _______ _____ _____    ______ ____
ROOT
ATOM      1  C   UNL     1      30.560  23.044  70.952  0.00  0.00    +0.000 C 
ATOM      2  C   UNL     1      31.645  23.429  71.677  0.00  0.00    +0.000 C 
ENDROOT
BRANCH   1   5
ATOM      3  C   UNL     1      31.442  19.491  70.016  0.00  0.00    +0.000 A 
ATOM      4  C   UNL     1      31.431  20.707  70.658  0.00  0.00    +0.000 A 
ATOM      5  C   UNL     1      30.555  21.695  70.252  0.00  0.00    +0.000 A 
ATOM      6  C   UNL     1      29.680  21.463  69.219  0.00  0.00    +0.000 A 
ATOM      7  C   UNL     1      29.662  20.239  68.587  0.00  0.00    +0.000 A 
ATOM      8  C   UNL     1      30.534  19.216  68.972  0.00  0.00    +0.000 A 
BRANCH   3  10
ATOM      9  C   UNL     1      31.969  17.702  71.501  0.00  0.00    +0.000 C 
ATOM     10  O   UNL     1      32.338  18.570  70.439  0.00  0.00    +0.000 OA
ENDBRANCH   3  10
BRANCH   8  11
ATOM     11  O   UNL     1      30.507  17.947  68.336  0.00  0.00    +0.000 OA
ATOM     12  H   UNL     1      31.346  17.563  67.950  0.00  0.00    +0.000 HD
ENDBRANCH   8  11
ENDBRANCH   1   5
BRANCH   2  13
ATOM     13  C   UNL     1      31.651  24.779  72.377  0.00  0.00    +0.000 C 
ATOM     14  O   UNL     1      31.388  24.852  73.619  0.00  0.00    +0.000 OA
BRANCH  13  15
ATOM     15  C   UNL     1      31.969  26.041  71.592  0.00  0.00    +0.000 C 
BRANCH  15  16
ATOM     16  C   UNL     1      33.466  26.116  71.339  0.00  0.00    +0.000 C 
BRANCH  16  17
ATOM     17  C   UNL     1      33.732  26.035  69.844  0.00  0.00    +0.000 C 
BRANCH  17  18
ATOM     18  C   UNL     1      34.393  24.706  69.519  0.00  0.00    +0.000 C 
BRANCH  18  19
ATOM     19  C   UNL     1      33.474  23.886  68.629  0.00  0.00    +0.000 A 
ATOM     20  C   UNL     1      33.725  22.544  68.396  0.00  0.00    +0.000 A 
ATOM     21  C   UNL     1      32.993  22.004  67.312  0.00  0.00    +0.000 A 
ATOM     22  C   UNL     1      31.918  22.559  66.783  0.00  0.00    +0.000 A 
ATOM     23  C   UNL     1      31.688  23.868  67.107  0.00  0.00    +0.000 A 
ATOM     24  C   UNL     1      32.444  24.503  68.061  0.00  0.00    +0.000 A 
ENDBRANCH  18  19
ENDBRANCH  17  18
ENDBRANCH  16  17
ENDBRANCH  15  16
ENDBRANCH  13  15
ENDBRANCH   2  13
TORSDOF 9
ENDMDL
MODEL 4
REMARK VINA RESULT:    -7.078      2.610      6.811
REMARK INTER + INTRA:         -13.067
REMARK INTER:                 -10.244
REMARK INTRA:                  -2.824
REMARK UNBOUND:                -2.473
REMARK  Name = 
REMARK  10 active torsions:
REMARK  status: ('A' for Active; 'I' for Inactive)
REMARK    1  A    between atoms: C_1  and  O_2
REMARK    2  A    between atoms: O_2  and  C_3
REMARK    3  A    between atoms: C_5  and  C_6
REMARK    4  A    between atoms: C_7  and  C_8
REMARK    5  A    between atoms: C_8  and  C_10
REMARK    6  A    between atoms: C_10  and  C_11
REMARK    7  A    between atoms: C_11  and  C_12
REMARK    8  A    between atoms: C_12  and  C_13
REMARK    9  A    between atoms: C_13  and  C_14
REMARK   10  A    between atoms: C_22  and  O_23
REMARK                            x       y       z     vdW  Elec       q    Type
REMARK                         _______ _______ _______ _____ _____    ______ ____
ROOT
ATOM      1  C   UNL     1      31.730  22.729  71.489  0.00  0.00    +0.000 C 
ATOM      2  C   UNL     1      31.062  23.891  71.253  0.00  0.00    +0.000 C 
ENDROOT
BRANCH   1   5
ATOM      3  C   UNL     1      29.827  20.297  69.310  0.00  0.00    +0.000 A 
ATOM      4  C   UNL     1      30.191  21.444  69.976  0.00  0.00    +0.000 A 
ATOM      5  C   UNL     1      31.343  21.465  70.738  0.00  0.00    +0.000 A 
ATOM      6  C   UNL     1      32.140  20.350  70.819  0.00  0.00    +0.000 A 
ATOM      7  C   UNL     1      31.802  19.204  70.132  0.00  0.00    +0.000 A 
ATOM      8  C   UNL     1      30.643  19.147  69.352  0.00  0.00    +0.000 A 
BRANCH   3  10
ATOM      9  C   UNL     1      28.426  21.441  67.756  0.00  0.00    +0.000 C 
ATOM     10  O   UNL     1      28.676  20.326  68.601  0.00  0.00    +0.000 OA
ENDBRANCH   3  10
BRANCH   8  11
ATOM     11  O   UNL     1      30.300  17.975  68.628  0.00  0.00    +0.000 OA
ATOM     12  H   UNL     1      30.484  17.074  69.020  0.00  0.00    +0.000 HD
ENDBRANCH   8  11
ENDBRANCH   1   5
BRANCH   2  13
ATOM     13  C   UNL     1      31.449  25.154  72.004  0.00  0.00    +0.000 C 
ATOM     14  O   UNL     1      31.380  25.186  73.274  0.00  0.00    +0.000 OA
BRANCH  13  15
ATOM     15  C   UNL     1      31.917  26.381  71.238  0.00  0.00    +0.000 C 
BRANCH  15  16
ATOM     16  C   UNL     1      33.428  26.501  71.348  0.00  0.00    +0.000 C 
BRANCH  16  17
ATOM     17  C   UNL     1      34.070  26.017  70.058  0.00  0.00    +0.000 C 
BRANCH  17  18
ATOM     18  C   UNL     1      33.058  26.100  68.927  0.00  0.00    +0.000 C 
BRANCH  18  19
ATOM     19  C   UNL     1      32.927  24.739  68.263  0.00  0.00    +0.000 A 
ATOM     20  C   UNL     1      31.863  24.461  67.421  0.00  0.00    +0.000 A 
ATOM     21  C   UNL     1      31.696  23.084  67.143  0.00  0.00    +0.000 A 
ATOM     22  C   UNL     1      32.624  22.164  67.332  0.00  0.00    +0.000 A 
ATOM     23  C   UNL     1      33.685  22.523  68.118  0.00  0.00    +0.000 A 
ATOM     24  C   UNL     1      33.846  23.821  68.537  0.00  0.00    +0.000 A 
ENDBRANCH  18  19
ENDBRANCH  17  18
ENDBRANCH  16  17
ENDBRANCH  15  16
ENDBRANCH  13  15
ENDBRANCH   2  13
TORSDOF 9
ENDMDL
MODEL 5
REMARK VINA RESULT:    -7.064      1.586      2.691
REMARK INTER + INTRA:         -13.048
REMARK INTER:                 -10.575
REMARK INTRA:                  -2.473
REMARK UNBOUND:                -2.473
REMARK  Name = 
REMARK  10 active torsions:
REMARK  status: ('A' for Active; 'I' for Inactive)
REMARK    1  A    between atoms: C_1  and  O_2
REMARK    2  A    between atoms: O_2  and  C_3
REMARK    3  A    between atoms: C_5  and  C_6
REMARK    4  A    between atoms: C_7  and  C_8
REMARK    5  A    between atoms: C_8  and  C_10
REMARK    6  A    between atoms: C_10  and  C_11
REMARK    7  A    between atoms: C_11  and  C_12
REMARK    8  A    between atoms: C_12  and  C_13
REMARK    9  A    between atoms: C_13  and  C_14
REMARK   10  A    between atoms: C_22  and  O_23
REMARK                            x       y       z     vdW  Elec       q    Type
REMARK                         _______ _______ _______ _____ _____    ______ ____
ROOT
ATOM      1  C   UNL     1      33.287  24.475  68.110  0.00  0.00    +0.000 C 
ATOM      2  C   UNL     1      32.151  23.907  67.622  0.00  0.00    +0.000 C 
ENDROOT
BRANCH   1   5
ATOM      3  C   UNL     1      34.249  27.194  70.553  0.00  0.00    +0.000 A 
ATOM      4  C   UNL     1      34.329  26.123  69.694  0.00  0.00    +0.000 A 
ATOM      5  C   UNL     1      33.197  25.673  69.043  0.00  0.00    +0.000 A 
ATOM      6  C   UNL     1      31.992  26.302  69.234  0.00  0.00    +0.000 A 
ATOM      7  C   UNL     1      31.905  27.394  70.069  0.00  0.00    +0.000 A 
ATOM      8  C   UNL     1      33.031  27.877  70.744  0.00  0.00    +0.000 A 
BRANCH   3  10
ATOM      9  C   UNL     1      36.521  27.901  70.396  0.00  0.00    +0.000 C 
ATOM     10  O   UNL     1      35.384  27.574  71.182  0.00  0.00    +0.000 OA
ENDBRANCH   3  10
BRANCH   8  11
ATOM     11  O   UNL     1      32.949  29.013  71.592  0.00  0.00    +0.000 OA
ATOM     12  H   UNL     1      32.624  28.913  72.532  0.00  0.00    +0.000 HD
ENDBRANCH   8  11
ENDBRANCH   1   5
BRANCH   2  13
ATOM     13  C   UNL     1      32.241  22.710  66.690  0.00  0.00    +0.000 C 
ATOM     14  O   UNL     1      33.373  22.196  66.422  0.00  0.00    +0.000 OA
BRANCH  13  15
ATOM     15  C   UNL     1      30.978  22.127  66.077  0.00  0.00    +0.000 C 
BRANCH  15  16
ATOM     16  C   UNL     1      30.665  20.793  66.734  0.00  0.00    +0.000 C 
BRANCH  16  17
ATOM     17  C   UNL     1      29.543  20.977  67.744  0.00  0.00    +0.000 C 
BRANCH  17  18
ATOM     18  C   UNL     1      29.918  20.290  69.047  0.00  0.00    +0.000 C 
BRANCH  18  19
ATOM     19  C   UNL     1      30.604  21.288  69.967  0.00  0.00    +0.000 A 
ATOM     20  C   UNL     1      29.904  22.356  70.501  0.00  0.00    +0.000 A 
ATOM     21  C   UNL     1      30.729  23.362  71.059  0.00  0.00    +0.000 A 
ATOM     22  C   UNL     1      31.996  23.192  71.390  0.00  0.00    +0.000 A 
ATOM     23  C   UNL     1      32.613  22.080  70.886  0.00  0.00    +0.000 A 
ATOM     24  C   UNL     1      31.898  21.117  70.217  0.00  0.00    +0.000 A 
ENDBRANCH  18  19
ENDBRANCH  17  18
ENDBRANCH  16  17
ENDBRANCH  15  16
ENDBRANCH  13  15
ENDBRANCH   2  13
TORSDOF 9
ENDMDL
