MODEL 1
REMARK VINA RESULT:    -7.656      0.000      0.000
REMARK INTER + INTRA:         -10.313
REMARK INTER:                  -9.850
REMARK INTRA:                  -0.463
REMARK UNBOUND:                -0.419
REMARK  Name = 
REMARK  7 active torsions:
REMARK  status: ('A' for Active; 'I' for Inactive)
REMARK    1  A    between atoms: C_1  and  O_2
REMARK    2  A    between atoms: O_2  and  C_3
REMARK    3  A    between atoms: C_5  and  C_6
REMARK    4  A    between atoms: C_7  and  C_8
REMARK    5  A    between atoms: C_8  and  C_10
REMARK    6  A    between atoms: C_13  and  O_14
REMARK    7  A    between atoms: C_19  and  O_20
REMARK                            x       y       z     vdW  Elec       q    Type
REMARK                         _______ _______ _______ _____ _____    ______ ____
ROOT
ATOM      1  C   UNL     1      31.825  21.384  68.506  0.00  0.00    +0.000 C 
ATOM      2  C   UNL     1      32.569  22.515  68.651  0.00  0.00    +0.000 C 
ENDROOT
BRANCH   1   5
ATOM      3  C   UNL     1      31.743  17.973  70.130  0.00  0.00    +0.000 A 
ATOM      4  C   UNL     1      31.690  18.969  69.185  0.00  0.00    +0.000 A 
ATOM      5  C   UNL     1      31.907  20.283  69.550  0.00  0.00    +0.000 A 
ATOM      6  C   UNL     1      32.197  20.600  70.855  0.00  0.00    +0.000 A 
ATOM      7  C   UNL     1      32.284  19.606  71.807  0.00  0.00    +0.000 A 
ATOM      8  C   UNL     1      32.069  18.266  71.471  0.00  0.00    +0.000 A 
BRANCH   3  10
ATOM      9  C   UNL     1      31.250  16.522  68.333  0.00  0.00    +0.000 C 
ATOM     10  O   UNL     1      31.495  16.708  69.719  0.00  0.00    +0.000 OA
ENDBRANCH   3  10
BRANCH   8  11
ATOM     11  O   UNL     1      32.174  17.237  72.444  0.00  0.00    +0.000 OA
ATOM     12  H   UNL     1      31.367  16.705  72.698  0.00  0.00    +0.000 HD
ENDBRANCH   8  11
ENDBRANCH   1   5
BRANCH   2  13
ATOM     13  C   UNL     1      32.487  23.616  67.606  0.00  0.00    +0.000 C 
ATOM     14  O   UNL     1      32.599  23.330  66.373  0.00  0.00    +0.000 OA
BRANCH  13  15
ATOM     15  C   UNL     1      32.273  25.059  68.036  0.00  0.00    +0.000 A 
ATOM     16  C   UNL     1      31.017  25.381  68.498  0.00  0.00    +0.000 A 
ATOM     17  C   UNL     1      30.698  26.693  68.865  0.00  0.00    +0.000 A 
ATOM     18  C   UNL     1      31.714  27.665  68.761  0.00  0.00    +0.000 A 
ATOM     19  C   UNL     1      32.955  27.336  68.269  0.00  0.00    +0.000 A 
ATOM     20  C   UNL     1      33.236  26.031  67.915  0.00  0.00    +0.000 A 
BRANCH  18  21
ATOM     21  O   UNL     1      31.504  28.953  69.115  0.00  0.00    +0.000 OA
ATOM     22  H   UNL     1      31.223  29.175  70.049  0.00  0.00    +0.000 HD
ENDBRANCH  18  21
ENDBRANCH  13  15
ENDBRANCH   2  13
TORSDOF 6
ENDMDL
MODEL 2
REMARK VINA RESULT:    -7.599      2.404      3.163
REMARK INTER + INTRA:         -10.239
REMARK INTER:                  -9.798
REMARK INTRA:                  -0.441
REMARK UNBOUND:                -0.419
REMARK  Name = 
REMARK  7 active torsions:
REMARK  status: ('A' for Active; 'I' for Inactive)
REMARK    1  A    between atoms: C_1  and  O_2
REMARK    2  A    between atoms: O_2  and  C_3
REMARK    3  A    between atoms: C_5  and  C_6
REMARK    4  A    between atoms: C_7  and  C_8
REMARK    5  A    between atoms: C_8  and  C_10
REMARK    6  A    between atoms: C_13  and  O_14
REMARK    7  A    between atoms: C_19  and  O_20
REMARK                            x       y       z     vdW  Elec       q    Type
REMARK                         _______ _______ _______ _____ _____    ______ ____
ROOT
ATOM      1  C   UNL     1      31.554  22.104  71.137  0.00  0.00    +0.000 C 
ATOM      2  C   UNL     1      31.441  23.380  70.676  0.00  0.00    +0.000 C 
ENDROOT
BRANCH   1   5
ATOM      3  C   UNL     1      31.713  18.607  69.714  0.00  0.00    +0.000 A 
ATOM      4  C   UNL     1      31.781  19.663  70.592  0.00  0.00    +0.000 A 
ATOM      5  C   UNL     1      31.457  20.937  70.169  0.00  0.00    +0.000 A 
ATOM      6  C   UNL     1      31.047  21.153  68.875  0.00  0.00    +0.000 A 
ATOM      7  C   UNL     1      30.945  20.098  67.994  0.00  0.00    +0.000 A 
ATOM      8  C   UNL     1      31.266  18.796  68.390  0.00  0.00    +0.000 A 
BRANCH   3  10
ATOM      9  C   UNL     1      31.057  16.629  70.825  0.00  0.00    +0.000 C 
ATOM     10  O   UNL     1      32.068  17.386  70.177  0.00  0.00    +0.000 OA
ENDBRANCH   3  10
BRANCH   8  11
ATOM     11  O   UNL     1      31.147  17.703  67.491  0.00  0.00    +0.000 OA
ATOM     12  H   UNL     1      30.339  17.623  66.906  0.00  0.00    +0.000 HD
ENDBRANCH   8  11
ENDBRANCH   1   5
BRANCH   2  13
ATOM     13  C   UNL     1      31.539  24.548  71.644  0.00  0.00    +0.000 C 
ATOM     14  O   UNL     1      31.053  24.445  72.813  0.00  0.00    +0.000 OA
BRANCH  13  15
ATOM     15  C   UNL     1      32.215  25.839  71.213  0.00  0.00    +0.000 A 
ATOM     16  C   UNL     1      31.393  26.825  70.715  0.00  0.00    +0.000 A 
ATOM     17  C   UNL     1      31.919  28.031  70.238  0.00  0.00    +0.000 A 
ATOM     18  C   UNL     1      33.317  28.203  70.301  0.00  0.00    +0.000 A 
ATOM     19  C   UNL     1      34.129  27.199  70.772  0.00  0.00    +0.000 A 
ATOM     20  C   UNL     1      33.576  26.021  71.235  0.00  0.00    +0.000 A 
BRANCH  18  21
ATOM     21  O   UNL     1      33.912  29.344  69.885  0.00  0.00    +0.000 OA
ATOM     22  H   UNL     1      34.003  30.118  70.513  0.00  0.00    +0.000 HD
ENDBRANCH  18  21
ENDBRANCH  13  15
ENDBRANCH   2  13
TORSDOF 6
ENDMDL
MODEL 3
REMARK VINA RESULT:    -7.591      2.544      3.471
REMARK INTER + INTRA:         -10.230
REMARK INTER:                  -9.773
REMARK INTRA:                  -0.457
REMARK UNBOUND:                -0.419
REMARK  Name = 
REMARK  7 active torsions:
REMARK  status: ('A' for Active; 'I' for Inactive)
REMARK    1  A    between atoms: C_1  and  O_2
REMARK    2  A    between atoms: O_2  and  C_3
REMARK    3  A    between atoms: C_5  and  C_6
REMARK    4  A    between atoms: C_7  and  C_8
REMARK    5  A    between atoms: C_8  and  C_10
REMARK    6  A    between atoms: C_13  and  O_14
REMARK    7  A    between atoms: C_19  and  O_20
REMARK                            x       y       z     vdW  Elec       q    Type
REMARK                         _______ _______ _______ _____ _____    ______ ____
ROOT
ATOM      1  C   UNL     1      31.555  22.163  71.141  0.00  0.00    +0.000 C 
ATOM      2  C   UNL     1      31.425  23.432  70.667  0.00  0.00    +0.000 C 
ENDROOT
BRANCH   1   5
ATOM      3  C   UNL     1      30.888  20.112  68.038  0.00  0.00    +0.000 A 
ATOM      4  C   UNL     1      31.003  21.179  68.896  0.00  0.00    +0.000 A 
ATOM      5  C   UNL     1      31.451  20.983  70.188  0.00  0.00    +0.000 A 
ATOM      6  C   UNL     1      31.802  19.726  70.616  0.00  0.00    +0.000 A 
ATOM      7  C   UNL     1      31.720  18.653  69.755  0.00  0.00    +0.000 A 
ATOM      8  C   UNL     1      31.270  18.816  68.441  0.00  0.00    +0.000 A 
BRANCH   3  10
ATOM      9  C   UNL     1      30.823  21.578  66.187  0.00  0.00    +0.000 C 
ATOM     10  O   UNL     1      30.418  20.359  66.793  0.00  0.00    +0.000 OA
ENDBRANCH   3  10
BRANCH   8  11
ATOM     11  O   UNL     1      31.201  17.716  67.545  0.00  0.00    +0.000 OA
ATOM     12  H   UNL     1      30.859  16.832  67.865  0.00  0.00    +0.000 HD
ENDBRANCH   8  11
ENDBRANCH   1   5
BRANCH   2  13
ATOM     13  C   UNL     1      31.530  24.612  71.620  0.00  0.00    +0.000 C 
ATOM     14  O   UNL     1      31.042  24.527  72.790  0.00  0.00    +0.000 OA
BRANCH  13  15
ATOM     15  C   UNL     1      32.215  25.893  71.173  0.00  0.00    +0.000 A 
ATOM     16  C   UNL     1      31.401  26.872  70.647  0.00  0.00    +0.000 A 
ATOM     17  C   UNL     1      31.937  28.067  70.154  0.00  0.00    +0.000 A 
ATOM     18  C   UNL     1      33.334  28.236  70.230  0.00  0.00    +0.000 A 
ATOM     19  C   UNL     1      34.139  27.239  70.729  0.00  0.00    +0.000 A 
ATOM     20  C   UNL     1      33.576  26.072  71.207  0.00  0.00    +0.000 A 
BRANCH  18  21
ATOM     21  O   UNL     1      33.938  29.367  69.799  0.00  0.00    +0.000 OA
ATOM     22  H   UNL     1      33.397  30.193  69.640  0.00  0.00    +0.000 HD
ENDBRANCH  18  21
ENDBRANCH  13  15
ENDBRANCH   2  13
TORSDOF 6
ENDMDL
MODEL 4
REMARK VINA RESULT:    -7.557      2.731      8.362
REMARK INTER + INTRA:         -10.185
REMARK INTER:                  -9.696
REMARK INTRA:                  -0.489
REMARK UNBOUND:                -0.419
REMARK  Name = 
REMARK  7 active torsions:
REMARK  status: ('A' for Active; 'I' for Inactive)
REMARK    1  A    between atoms: C_1  and  O_2
REMARK    2  A    between atoms: O_2  and  C_3
REMARK    3  A    between atoms: C_5  and  C_6
REMARK    4  A    between atoms: C_7  and  C_8
REMARK    5  A    between atoms: C_8  and  C_10
REMARK    6  A    between atoms: C_13  and  O_14
REMARK    7  A    between atoms: C_19  and  O_20
REMARK                            x       y       z     vdW  Elec       q    Type
REMARK                         _______ _______ _______ _____ _____    ______ ____
ROOT
ATOM      1  C   UNL     1      32.823  24.543  70.753  0.00  0.00    +0.000 C 
ATOM      2  C   UNL     1      31.567  24.235  71.176  0.00  0.00    +0.000 C 
ENDROOT
BRANCH   1   5
ATOM      3  C   UNL     1      34.120  28.093  70.779  0.00  0.00    +0.000 A 
ATOM      4  C   UNL     1      33.840  26.803  71.165  0.00  0.00    +0.000 A 
ATOM      5  C   UNL     1      33.150  25.961  70.315  0.00  0.00    +0.000 A 
ATOM      6  C   UNL     1      32.757  26.401  69.074  0.00  0.00    +0.000 A 
ATOM      7  C   UNL     1      33.058  27.681  68.664  0.00  0.00    +0.000 A 
ATOM      8  C   UNL     1      33.755  28.560  69.500  0.00  0.00    +0.000 A 
BRANCH   3  10
ATOM      9  C   UNL     1      36.185  28.961  71.526  0.00  0.00    +0.000 C 
ATOM     10  O   UNL     1      34.774  28.880  71.664  0.00  0.00    +0.000 OA
ENDBRANCH   3  10
BRANCH   8  11
ATOM     11  O   UNL     1      34.083  29.875  69.076  0.00  0.00    +0.000 OA
ATOM     12  H   UNL     1      33.747  30.215  68.197  0.00  0.00    +0.000 HD
ENDBRANCH   8  11
ENDBRANCH   1   5
BRANCH   2  13
ATOM     13  C   UNL     1      31.240  22.817  71.615  0.00  0.00    +0.000 C 
ATOM     14  O   UNL     1      30.977  22.574  72.834  0.00  0.00    +0.000 OA
BRANCH  13  15
ATOM     15  C   UNL     1      31.231  21.688  70.596  0.00  0.00    +0.000 A 
ATOM     16  C   UNL     1      30.247  21.739  69.634  0.00  0.00    +0.000 A 
ATOM     17  C   UNL     1      30.114  20.722  68.683  0.00  0.00    +0.000 A 
ATOM     18  C   UNL     1      31.033  19.654  68.738  0.00  0.00    +0.000 A 
ATOM     19  C   UNL     1      31.992  19.599  69.722  0.00  0.00    +0.000 A 
ATOM     20  C   UNL     1      32.094  20.621  70.645  0.00  0.00    +0.000 A 
BRANCH  18  21
ATOM     21  O   UNL     1      30.996  18.638  67.846  0.00  0.00    +0.000 OA
ATOM     22  H   UNL     1      30.547  17.777  68.087  0.00  0.00    +0.000 HD
ENDBRANCH  18  21
ENDBRANCH  13  15
ENDBRANCH   2  13
TORSDOF 6
ENDMDL
MODEL 5
REMARK VINA RESULT:    -7.545      2.744      8.115
REMARK INTER + INTRA:         -10.169
REMARK INTER:                  -9.750
REMARK INTRA:                  -0.419
REMARK UNBOUND:                -0.419
REMARK  Name = 
REMARK  7 active torsions:
REMARK  status: ('A' for Active; 'I' for Inactive)
REMARK    1  A    between atoms: C_1  and  O_2
REMARK    2  A    between atoms: O_2  and  C_3
REMARK    3  A    between atoms: C_5  and  C_6
REMARK    4  A    between atoms: C_7  and  C_8
REMARK    5  A    between atoms: C_8  and  C_10
REMARK    6  A    between atoms: C_13  and  O_14
REMARK    7  A    between atoms: C_19  and  O_20
REMARK                            x       y       z     vdW  Elec       q    Type
REMARK                         _______ _______ _______ _____ _____    ______ ____
ROOT
ATOM      1  C   UNL     1      34.311  24.964  68.821  0.00  0.00    +0.000 C 
ATOM      2  C   UNL     1      33.150  24.358  68.452  0.00  0.00    +0.000 C 
ENDROOT
BRANCH   1   5
ATOM      3  C   UNL     1      35.423  27.969  70.825  0.00  0.00    +0.000 A 
ATOM      4  C   UNL     1      35.453  26.835  70.048  0.00  0.00    +0.000 A 
ATOM      5  C   UNL     1      34.273  26.230  69.661  0.00  0.00    +0.000 A 
ATOM      6  C   UNL     1      33.065  26.767  70.033  0.00  0.00    +0.000 A 
ATOM      7  C   UNL     1      33.022  27.920  70.786  0.00  0.00    +0.000 A 
ATOM      8  C   UNL     1      34.197  28.558  71.196  0.00  0.00    +0.000 A 
BRANCH   3  10
ATOM      9  C   UNL     1      37.171  29.478  70.331  0.00  0.00    +0.000 C 
ATOM     10  O   UNL     1      36.609  28.503  71.196  0.00  0.00    +0.000 OA
ENDBRANCH   3  10
BRANCH   8  11
ATOM     11  O   UNL     1      34.157  29.757  71.957  0.00  0.00    +0.000 OA
ATOM     12  H   UNL     1      33.803  30.597  71.547  0.00  0.00    +0.000 HD
ENDBRANCH   8  11
ENDBRANCH   1   5
BRANCH   2  13
ATOM     13  C   UNL     1      33.188  23.092  67.611  0.00  0.00    +0.000 C 
ATOM     14  O   UNL     1      34.018  22.990  66.655  0.00  0.00    +0.000 OA
BRANCH  13  15
ATOM     15  C   UNL     1      32.231  21.950  67.912  0.00  0.00    +0.000 A 
ATOM     16  C   UNL     1      30.914  22.144  67.558  0.00  0.00    +0.000 A 
ATOM     17  C   UNL     1      29.942  21.179  67.842  0.00  0.00    +0.000 A 
ATOM     18  C   UNL     1      30.363  19.998  68.486  0.00  0.00    +0.000 A 
ATOM     19  C   UNL     1      31.675  19.829  68.862  0.00  0.00    +0.000 A 
ATOM     20  C   UNL     1      32.609  20.803  68.567  0.00  0.00    +0.000 A 
BRANCH  18  21
ATOM     21  O   UNL     1      29.497  19.000  68.779  0.00  0.00    +0.000 OA
ATOM     22  H   UNL     1      29.781  18.047  68.676  0.00  0.00    +0.000 HD
ENDBRANCH  18  21
ENDBRANCH  13  15
ENDBRANCH   2  13
TORSDOF 6
ENDMDL
