MODEL 1
REMARK VINA RESULT:    -7.204      0.000      0.000
REMARK INTER + INTRA:          -9.335
REMARK INTER:                  -8.893
REMARK INTRA:                  -0.442
REMARK UNBOUND:                -0.446
REMARK  Name = 
REMARK  6 active torsions:
REMARK  status: ('A' for Active; 'I' for Inactive)
REMARK    1  A    between atoms: C_1  and  O_2
REMARK    2  A    between atoms: O_2  and  C_3
REMARK    3  A    between atoms: C_5  and  C_6
REMARK    4  A    between atoms: C_7  and  C_8
REMARK    5  A    between atoms: C_15  and  O_16
REMARK    6  A    between atoms: O_16  and  C_17
REMARK                            x       y       z     vdW  Elec       q    Type
REMARK                         _______ _______ _______ _____ _____    ______ ____
ROOT
ATOM      1  C   UNL     1      33.824  23.938  68.111  0.00  0.00    +0.000 A 
ATOM      2  C   UNL     1      33.932  25.317  68.187  0.00  0.00    +0.000 A 
ATOM      3  C   UNL     1      33.736  25.838  69.487  0.00  0.00    +0.000 A 
ATOM      4  C   UNL     1      33.153  25.184  70.475  0.00  0.00    +0.000 A 
ATOM      5  C   UNL     1      33.012  23.833  70.311  0.00  0.00    +0.000 A 
ATOM      6  C   UNL     1      33.309  23.233  69.111  0.00  0.00    +0.000 A 
ENDROOT
BRANCH   1   8
ATOM      7  C   UNL     1      34.362  21.899  66.847  0.00  0.00    +0.000 C 
ATOM      8  O   UNL     1      34.189  23.307  66.892  0.00  0.00    +0.000 OA
ENDBRANCH   1   8
BRANCH   3   9
ATOM      9  C   UNL     1      34.227  27.248  69.767  0.00  0.00    +0.000 C 
ATOM     10  C   UNL     1      35.323  27.445  70.549  0.00  0.00    +0.000 C 
BRANCH  10  11
ATOM     11  C   UNL     1      35.814  28.855  70.829  0.00  0.00    +0.000 A 
ATOM     12  C   UNL     1      35.255  29.645  71.821  0.00  0.00    +0.000 A 
ATOM     13  C   UNL     1      35.691  30.991  71.795  0.00  0.00    +0.000 A 
ATOM     14  C   UNL     1      36.770  31.418  71.164  0.00  0.00    +0.000 A 
ATOM     15  C   UNL     1      37.315  30.563  70.246  0.00  0.00    +0.000 A 
ATOM     16  C   UNL     1      36.856  29.274  70.121  0.00  0.00    +0.000 A 
ENDBRANCH  10  11
ENDBRANCH   3   9
BRANCH   5  17
ATOM     17  O   UNL     1      32.554  23.040  71.395  0.00  0.00    +0.000 OA
ATOM     18  C   UNL     1      31.953  21.778  71.147  0.00  0.00    +0.000 C 
ENDBRANCH   5  17
TORSDOF 4
ENDMDL
MODEL 2
REMARK VINA RESULT:    -7.115      0.371      2.586
REMARK INTER + INTRA:          -9.225
REMARK INTER:                  -8.810
REMARK INTRA:                  -0.415
REMARK UNBOUND:                -0.446
REMARK  Name = 
REMARK  6 active torsions:
REMARK  status: ('A' for Active; 'I' for Inactive)
REMARK    1  A    between atoms: C_1  and  O_2
REMARK    2  A    between atoms: O_2  and  C_3
REMARK    3  A    between atoms: C_5  and  C_6
REMARK    4  A    between atoms: C_7  and  C_8
REMARK    5  A    between atoms: C_15  and  O_16
REMARK    6  A    between atoms: O_16  and  C_17
REMARK                            x       y       z     vdW  Elec       q    Type
REMARK                         _______ _______ _______ _____ _____    ______ ____
ROOT
ATOM      1  C   UNL     1      32.724  23.640  70.261  0.00  0.00    +0.000 A 
ATOM      2  C   UNL     1      33.331  24.806  70.696  0.00  0.00    +0.000 A 
ATOM      3  C   UNL     1      34.023  25.506  69.679  0.00  0.00    +0.000 A 
ATOM      4  C   UNL     1      34.393  24.980  68.527  0.00  0.00    +0.000 A 
ATOM      5  C   UNL     1      33.808  23.792  68.185  0.00  0.00    +0.000 A 
ATOM      6  C   UNL     1      33.014  23.113  69.078  0.00  0.00    +0.000 A 
ENDROOT
BRANCH   1   8
ATOM      7  C   UNL     1      31.473  21.624  70.907  0.00  0.00    +0.000 C 
ATOM      8  O   UNL     1      31.852  22.968  71.159  0.00  0.00    +0.000 OA
ENDBRANCH   1   8
BRANCH   3   9
ATOM      9  C   UNL     1      34.365  26.965  69.933  0.00  0.00    +0.000 C 
ATOM     10  C   UNL     1      35.566  27.298  70.478  0.00  0.00    +0.000 C 
BRANCH  10  11
ATOM     11  C   UNL     1      35.908  28.757  70.731  0.00  0.00    +0.000 A 
ATOM     12  C   UNL     1      35.224  29.521  71.663  0.00  0.00    +0.000 A 
ATOM     13  C   UNL     1      35.533  30.900  71.612  0.00  0.00    +0.000 A 
ATOM     14  C   UNL     1      36.602  31.407  71.023  0.00  0.00    +0.000 A 
ATOM     15  C   UNL     1      37.275  30.580  70.167  0.00  0.00    +0.000 A 
ATOM     16  C   UNL     1      36.946  29.250  70.065  0.00  0.00    +0.000 A 
ENDBRANCH  10  11
ENDBRANCH   3   9
BRANCH   5  17
ATOM     17  O   UNL     1      34.024  23.252  66.890  0.00  0.00    +0.000 OA
ATOM     18  C   UNL     1      34.317  21.871  66.736  0.00  0.00    +0.000 C 
ENDBRANCH   5  17
TORSDOF 4
ENDMDL
MODEL 3
REMARK VINA RESULT:    -7.081      3.966      9.858
REMARK INTER + INTRA:          -9.183
REMARK INTER:                  -8.737
REMARK INTRA:                  -0.446
REMARK UNBOUND:                -0.446
REMARK  Name = 
REMARK  6 active torsions:
REMARK  status: ('A' for Active; 'I' for Inactive)
REMARK    1  A    between atoms: C_1  and  O_2
REMARK    2  A    between atoms: O_2  and  C_3
REMARK    3  A    between atoms: C_5  and  C_6
REMARK    4  A    between atoms: C_7  and  C_8
REMARK    5  A    between atoms: C_15  and  O_16
REMARK    6  A    between atoms: O_16  and  C_17
REMARK                            x       y       z     vdW  Elec       q    Type
REMARK                         _______ _______ _______ _____ _____    ______ ____
ROOT
ATOM      1  C   UNL     1      31.665  23.230  71.567  0.00  0.00    +0.000 A 
ATOM      2  C   UNL     1      30.894  22.149  71.174  0.00  0.00    +0.000 A 
ATOM      3  C   UNL     1      31.395  21.468  70.040  0.00  0.00    +0.000 A 
ATOM      4  C   UNL     1      32.277  21.969  69.195  0.00  0.00    +0.000 A 
ATOM      5  C   UNL     1      32.959  23.079  69.614  0.00  0.00    +0.000 A 
ATOM      6  C   UNL     1      32.612  23.722  70.777  0.00  0.00    +0.000 A 
ENDROOT
BRANCH   1   8
ATOM      7  C   UNL     1      32.009  25.061  73.171  0.00  0.00    +0.000 C 
ATOM      8  O   UNL     1      31.351  23.860  72.800  0.00  0.00    +0.000 OA
ENDBRANCH   1   8
BRANCH   3   9
ATOM      9  C   UNL     1      30.883  20.062  69.775  0.00  0.00    +0.000 C 
ATOM     10  C   UNL     1      31.723  18.998  69.890  0.00  0.00    +0.000 C 
BRANCH  10  11
ATOM     11  C   UNL     1      31.210  17.592  69.624  0.00  0.00    +0.000 A 
ATOM     12  C   UNL     1      31.439  16.942  68.422  0.00  0.00    +0.000 A 
ATOM     13  C   UNL     1      30.712  15.737  68.275  0.00  0.00    +0.000 A 
ATOM     14  C   UNL     1      30.153  15.073  69.271  0.00  0.00    +0.000 A 
ATOM     15  C   UNL     1      30.017  15.748  70.453  0.00  0.00    +0.000 A 
ATOM     16  C   UNL     1      30.588  16.986  70.628  0.00  0.00    +0.000 A 
ENDBRANCH  10  11
ENDBRANCH   3   9
BRANCH   5  17
ATOM     17  O   UNL     1      34.038  23.572  68.836  0.00  0.00    +0.000 OA
ATOM     18  C   UNL     1      34.082  24.943  68.470  0.00  0.00    +0.000 C 
ENDBRANCH   5  17
TORSDOF 4
ENDMDL
MODEL 4
REMARK VINA RESULT:    -7.022      3.913      9.676
REMARK INTER + INTRA:          -9.110
REMARK INTER:                  -8.673
REMARK INTRA:                  -0.438
REMARK UNBOUND:                -0.446
REMARK  Name = 
REMARK  6 active torsions:
REMARK  status: ('A' for Active; 'I' for Inactive)
REMARK    1  A    between atoms: C_1  and  O_2
REMARK    2  A    between atoms: O_2  and  C_3
REMARK    3  A    between atoms: C_5  and  C_6
REMARK    4  A    between atoms: C_7  and  C_8
REMARK    5  A    between atoms: C_15  and  O_16
REMARK    6  A    between atoms: O_16  and  C_17
REMARK                            x       y       z     vdW  Elec       q    Type
REMARK                         _______ _______ _______ _____ _____    ______ ____
ROOT
ATOM      1  C   UNL     1      32.982  23.104  69.157  0.00  0.00    +0.000 A 
ATOM      2  C   UNL     1      32.862  21.750  68.891  0.00  0.00    +0.000 A 
ATOM      3  C   UNL     1      32.012  21.061  69.788  0.00  0.00    +0.000 A 
ATOM      4  C   UNL     1      31.644  21.519  70.971  0.00  0.00    +0.000 A 
ATOM      5  C   UNL     1      31.852  22.852  71.199  0.00  0.00    +0.000 A 
ATOM      6  C   UNL     1      32.560  23.619  70.305  0.00  0.00    +0.000 A 
ENDROOT
BRANCH   1   8
ATOM      7  C   UNL     1      34.400  25.044  68.636  0.00  0.00    +0.000 C 
ATOM      8  O   UNL     1      33.659  23.912  68.206  0.00  0.00    +0.000 OA
ENDBRANCH   1   8
BRANCH   3   9
ATOM      9  C   UNL     1      31.487  19.700  69.363  0.00  0.00    +0.000 C 
ATOM     10  C   UNL     1      31.720  18.608  70.139  0.00  0.00    +0.000 C 
BRANCH  10  11
ATOM     11  C   UNL     1      31.196  17.247  69.713  0.00  0.00    +0.000 A 
ATOM     12  C   UNL     1      32.045  16.205  69.374  0.00  0.00    +0.000 A 
ATOM     13  C   UNL     1      31.386  15.091  68.803  0.00  0.00    +0.000 A 
ATOM     14  C   UNL     1      30.088  14.861  68.893  0.00  0.00    +0.000 A 
ATOM     15  C   UNL     1      29.311  15.910  69.299  0.00  0.00    +0.000 A 
ATOM     16  C   UNL     1      29.879  17.078  69.747  0.00  0.00    +0.000 A 
ENDBRANCH  10  11
ENDBRANCH   3   9
BRANCH   5  17
ATOM     17  O   UNL     1      31.329  23.451  72.375  0.00  0.00    +0.000 OA
ATOM     18  C   UNL     1      31.715  24.770  72.732  0.00  0.00    +0.000 C 
ENDBRANCH   5  17
TORSDOF 4
ENDMDL
MODEL 5
REMARK VINA RESULT:    -7.012      3.362      8.679
REMARK INTER + INTRA:          -9.097
REMARK INTER:                  -8.630
REMARK INTRA:                  -0.467
REMARK UNBOUND:                -0.446
REMARK  Name = 
REMARK  6 active torsions:
REMARK  status: ('A' for Active; 'I' for Inactive)
REMARK    1  A    between atoms: C_1  and  O_2
REMARK    2  A    between atoms: O_2  and  C_3
REMARK    3  A    between atoms: C_5  and  C_6
REMARK    4  A    between atoms: C_7  and  C_8
REMARK    5  A    between atoms: C_15  and  O_16
REMARK    6  A    between atoms: O_16  and  C_17
REMARK                            x       y       z     vdW  Elec       q    Type
REMARK                         _______ _______ _______ _____ _____    ______ ____
ROOT
ATOM      1  C   UNL     1      33.407  24.382  70.113  0.00  0.00    +0.000 A 
ATOM      2  C   UNL     1      33.358  23.026  70.389  0.00  0.00    +0.000 A 
ATOM      3  C   UNL     1      32.216  22.631  71.126  0.00  0.00    +0.000 A 
ATOM      4  C   UNL     1      31.447  23.455  71.813  0.00  0.00    +0.000 A 
ATOM      5  C   UNL     1      31.591  24.789  71.544  0.00  0.00    +0.000 A 
ATOM      6  C   UNL     1      32.602  25.239  70.730  0.00  0.00    +0.000 A 
ENDROOT
BRANCH   1   8
ATOM      7  C   UNL     1      35.493  25.621  69.713  0.00  0.00    +0.000 C 
ATOM      8  O   UNL     1      34.411  24.845  69.222  0.00  0.00    +0.000 OA
ENDBRANCH   1   8
BRANCH   3   9
ATOM      9  C   UNL     1      31.851  21.156  71.128  0.00  0.00    +0.000 C 
ATOM     10  C   UNL     1      32.076  20.398  70.021  0.00  0.00    +0.000 C 
BRANCH  10  11
ATOM     11  C   UNL     1      31.710  18.923  70.023  0.00  0.00    +0.000 A 
ATOM     12  C   UNL     1      31.305  18.265  68.873  0.00  0.00    +0.000 A 
ATOM     13  C   UNL     1      30.804  16.962  69.104  0.00  0.00    +0.000 A 
ATOM     14  C   UNL     1      31.011  16.264  70.206  0.00  0.00    +0.000 A 
ATOM     15  C   UNL     1      31.477  16.959  71.288  0.00  0.00    +0.000 A 
ATOM     16  C   UNL     1      31.863  18.273  71.171  0.00  0.00    +0.000 A 
ENDBRANCH  10  11
ENDBRANCH   3   9
BRANCH   5  17
ATOM     17  O   UNL     1      30.685  25.720  72.115  0.00  0.00    +0.000 OA
ATOM     18  C   UNL     1      30.680  27.069  71.673  0.00  0.00    +0.000 C 
ENDBRANCH   5  17
TORSDOF 4
ENDMDL
