MODEL 1
REMARK VINA RESULT:    -7.352      0.000      0.000
REMARK INTER + INTRA:          -9.253
REMARK INTER:                  -8.876
REMARK INTRA:                  -0.377
REMARK UNBOUND:                -0.397
REMARK  Name = 
REMARK  5 active torsions:
REMARK  status: ('A' for Active; 'I' for Inactive)
REMARK    1  A    between atoms: C_1  and  O_2
REMARK    2  A    between atoms: O_2  and  C_3
REMARK    3  A    between atoms: C_5  and  O_6
REMARK    4  A    between atoms: C_8  and  C_9
REMARK    5  A    between atoms: C_10  and  C_11
REMARK                            x       y       z     vdW  Elec       q    Type
REMARK                         _______ _______ _______ _____ _____    ______ ____
ROOT
ATOM      1  C   UNL     1      31.145  16.830  69.053  0.00  0.00    +0.000 A 
ATOM      2  C   UNL     1      31.447  16.580  70.371  0.00  0.00    +0.000 A 
ATOM      3  C   UNL     1      31.906  17.599  71.181  0.00  0.00    +0.000 A 
ATOM      4  C   UNL     1      32.046  18.872  70.682  0.00  0.00    +0.000 A 
ATOM      5  C   UNL     1      31.718  19.142  69.372  0.00  0.00    +0.000 A 
ATOM      6  C   UNL     1      31.250  18.133  68.523  0.00  0.00    +0.000 A 
ENDROOT
BRANCH   1   8
ATOM      7  C   UNL     1      31.039  14.441  68.617  0.00  0.00    +0.000 C 
ATOM      8  O   UNL     1      30.724  15.789  68.300  0.00  0.00    +0.000 OA
ENDBRANCH   1   8
BRANCH   3   9
ATOM      9  O   UNL     1      32.236  17.330  72.536  0.00  0.00    +0.000 OA
ATOM     10  H   UNL     1      33.140  16.969  72.768  0.00  0.00    +0.000 HD
ENDBRANCH   3   9
BRANCH   5  11
ATOM     11  C   UNL     1      31.868  20.558  68.840  0.00  0.00    +0.000 C 
ATOM     12  C   UNL     1      30.819  21.421  68.900  0.00  0.00    +0.000 C 
BRANCH  12  13
ATOM     13  C   UNL     1      30.968  22.837  68.367  0.00  0.00    +0.000 A 
ATOM     14  C   UNL     1      32.095  23.231  67.664  0.00  0.00    +0.000 A 
ATOM     15  C   UNL     1      32.233  24.634  67.542  0.00  0.00    +0.000 A 
ATOM     16  C   UNL     1      31.256  25.502  67.732  0.00  0.00    +0.000 A 
ATOM     17  C   UNL     1      30.142  25.034  68.372  0.00  0.00    +0.000 A 
ATOM     18  C   UNL     1      29.992  23.696  68.642  0.00  0.00    +0.000 A 
ENDBRANCH  12  13
ENDBRANCH   5  11
TORSDOF 4
ENDMDL
MODEL 2
REMARK VINA RESULT:    -7.203      3.307      7.133
REMARK INTER + INTRA:          -9.073
REMARK INTER:                  -8.681
REMARK INTRA:                  -0.392
REMARK UNBOUND:                -0.397
REMARK  Name = 
REMARK  5 active torsions:
REMARK  status: ('A' for Active; 'I' for Inactive)
REMARK    1  A    between atoms: C_1  and  O_2
REMARK    2  A    between atoms: O_2  and  C_3
REMARK    3  A    between atoms: C_5  and  O_6
REMARK    4  A    between atoms: C_8  and  C_9
REMARK    5  A    between atoms: C_10  and  C_11
REMARK                            x       y       z     vdW  Elec       q    Type
REMARK                         _______ _______ _______ _____ _____    ______ ____
ROOT
ATOM      1  C   UNL     1      31.633  23.080  71.385  0.00  0.00    +0.000 A 
ATOM      2  C   UNL     1      32.671  23.636  70.674  0.00  0.00    +0.000 A 
ATOM      3  C   UNL     1      33.266  22.926  69.651  0.00  0.00    +0.000 A 
ATOM      4  C   UNL     1      32.813  21.671  69.323  0.00  0.00    +0.000 A 
ATOM      5  C   UNL     1      31.755  21.116  70.007  0.00  0.00    +0.000 A 
ATOM      6  C   UNL     1      31.129  21.807  71.051  0.00  0.00    +0.000 A 
ENDROOT
BRANCH   1   8
ATOM      7  C   UNL     1      31.797  24.898  72.991  0.00  0.00    +0.000 C 
ATOM      8  O   UNL     1      31.106  23.810  72.395  0.00  0.00    +0.000 OA
ENDBRANCH   1   8
BRANCH   3   9
ATOM      9  O   UNL     1      34.350  23.497  68.932  0.00  0.00    +0.000 OA
ATOM     10  H   UNL     1      35.103  22.917  68.619  0.00  0.00    +0.000 HD
ENDBRANCH   3   9
BRANCH   5  11
ATOM     11  C   UNL     1      31.260  19.731  69.624  0.00  0.00    +0.000 C 
ATOM     12  C   UNL     1      31.722  18.636  70.286  0.00  0.00    +0.000 C 
BRANCH  12  13
ATOM     13  C   UNL     1      31.228  17.250  69.902  0.00  0.00    +0.000 A 
ATOM     14  C   UNL     1      32.100  16.264  69.471  0.00  0.00    +0.000 A 
ATOM     15  C   UNL     1      31.463  15.172  68.837  0.00  0.00    +0.000 A 
ATOM     16  C   UNL     1      30.176  14.893  68.941  0.00  0.00    +0.000 A 
ATOM     17  C   UNL     1      29.377  15.885  69.438  0.00  0.00    +0.000 A 
ATOM     18  C   UNL     1      29.918  17.037  69.955  0.00  0.00    +0.000 A 
ENDBRANCH  12  13
ENDBRANCH   5  11
TORSDOF 4
ENDMDL
MODEL 3
REMARK VINA RESULT:    -7.176     14.435     15.525
REMARK INTER + INTRA:          -9.040
REMARK INTER:                  -8.634
REMARK INTRA:                  -0.406
REMARK UNBOUND:                -0.397
REMARK  Name = 
REMARK  5 active torsions:
REMARK  status: ('A' for Active; 'I' for Inactive)
REMARK    1  A    between atoms: C_1  and  O_2
REMARK    2  A    between atoms: O_2  and  C_3
REMARK    3  A    between atoms: C_5  and  O_6
REMARK    4  A    between atoms: C_8  and  C_9
REMARK    5  A    between atoms: C_10  and  C_11
REMARK                            x       y       z     vdW  Elec       q    Type
REMARK                         _______ _______ _______ _____ _____    ______ ____
ROOT
ATOM      1  C   UNL     1      41.157  15.240  80.892  0.00  0.00    +0.000 A 
ATOM      2  C   UNL     1      41.465  14.693  79.669  0.00  0.00    +0.000 A 
ATOM      3  C   UNL     1      41.871  15.507  78.631  0.00  0.00    +0.000 A 
ATOM      4  C   UNL     1      41.988  16.864  78.818  0.00  0.00    +0.000 A 
ATOM      5  C   UNL     1      41.711  17.419  80.046  0.00  0.00    +0.000 A 
ATOM      6  C   UNL     1      41.297  16.624  81.121  0.00  0.00    +0.000 A 
ENDROOT
BRANCH   1   8
ATOM      7  C   UNL     1      40.810  14.730  83.244  0.00  0.00    +0.000 C 
ATOM      8  O   UNL     1      40.739  14.398  81.865  0.00  0.00    +0.000 OA
ENDBRANCH   1   8
BRANCH   3   9
ATOM      9  O   UNL     1      42.170  14.939  77.363  0.00  0.00    +0.000 OA
ATOM     10  H   UNL     1      42.376  15.534  76.585  0.00  0.00    +0.000 HD
ENDBRANCH   3   9
BRANCH   5  11
ATOM     11  C   UNL     1      41.857  18.920  80.239  0.00  0.00    +0.000 C 
ATOM     12  C   UNL     1      40.824  19.644  80.746  0.00  0.00    +0.000 C 
BRANCH  12  13
ATOM     13  C   UNL     1      40.969  21.146  80.938  0.00  0.00    +0.000 A 
ATOM     14  C   UNL     1      40.096  22.040  80.339  0.00  0.00    +0.000 A 
ATOM     15  C   UNL     1      40.561  23.376  80.331  0.00  0.00    +0.000 A 
ATOM     16  C   UNL     1      41.526  23.838  81.105  0.00  0.00    +0.000 A 
ATOM     17  C   UNL     1      42.311  22.904  81.722  0.00  0.00    +0.000 A 
ATOM     18  C   UNL     1      41.996  21.568  81.667  0.00  0.00    +0.000 A 
ENDBRANCH  12  13
ENDBRANCH   5  11
TORSDOF 4
ENDMDL
MODEL 4
REMARK VINA RESULT:    -7.083      4.660      6.709
REMARK INTER + INTRA:          -8.929
REMARK INTER:                  -8.532
REMARK INTRA:                  -0.397
REMARK UNBOUND:                -0.397
REMARK  Name = 
REMARK  5 active torsions:
REMARK  status: ('A' for Active; 'I' for Inactive)
REMARK    1  A    between atoms: C_1  and  O_2
REMARK    2  A    between atoms: O_2  and  C_3
REMARK    3  A    between atoms: C_5  and  O_6
REMARK    4  A    between atoms: C_8  and  C_9
REMARK    5  A    between atoms: C_10  and  C_11
REMARK                            x       y       z     vdW  Elec       q    Type
REMARK                         _______ _______ _______ _____ _____    ______ ____
ROOT
ATOM      1  C   UNL     1      32.771  22.505  69.954  0.00  0.00    +0.000 A 
ATOM      2  C   UNL     1      32.782  21.827  68.758  0.00  0.00    +0.000 A 
ATOM      3  C   UNL     1      33.372  22.395  67.647  0.00  0.00    +0.000 A 
ATOM      4  C   UNL     1      33.969  23.629  67.734  0.00  0.00    +0.000 A 
ATOM      5  C   UNL     1      33.991  24.305  68.934  0.00  0.00    +0.000 A 
ATOM      6  C   UNL     1      33.402  23.759  70.079  0.00  0.00    +0.000 A 
ENDROOT
BRANCH   1   8
ATOM      7  C   UNL     1      32.440  20.579  71.401  0.00  0.00    +0.000 C 
ATOM      8  O   UNL     1      32.155  21.912  71.003  0.00  0.00    +0.000 OA
ENDBRANCH   1   8
BRANCH   3   9
ATOM      9  O   UNL     1      33.363  21.698  66.409  0.00  0.00    +0.000 OA
ATOM     10  H   UNL     1      33.048  20.750  66.372  0.00  0.00    +0.000 HD
ENDBRANCH   3   9
BRANCH   5  11
ATOM     11  C   UNL     1      34.666  25.664  69.014  0.00  0.00    +0.000 C 
ATOM     12  C   UNL     1      34.673  26.352  70.188  0.00  0.00    +0.000 C 
BRANCH  12  13
ATOM     13  C   UNL     1      35.347  27.712  70.269  0.00  0.00    +0.000 A 
ATOM     14  C   UNL     1      34.634  28.885  70.080  0.00  0.00    +0.000 A 
ATOM     15  C   UNL     1      35.448  30.019  69.847  0.00  0.00    +0.000 A 
ATOM     16  C   UNL     1      36.736  30.086  70.128  0.00  0.00    +0.000 A 
ATOM     17  C   UNL     1      37.369  28.898  70.372  0.00  0.00    +0.000 A 
ATOM     18  C   UNL     1      36.657  27.729  70.484  0.00  0.00    +0.000 A 
ENDBRANCH  12  13
ENDBRANCH   5  11
TORSDOF 4
ENDMDL
MODEL 5
REMARK VINA RESULT:    -7.075      3.245      6.957
REMARK INTER + INTRA:          -8.919
REMARK INTER:                  -8.522
REMARK INTRA:                  -0.396
REMARK UNBOUND:                -0.397
REMARK  Name = 
REMARK  5 active torsions:
REMARK  status: ('A' for Active; 'I' for Inactive)
REMARK    1  A    between atoms: C_1  and  O_2
REMARK    2  A    between atoms: O_2  and  C_3
REMARK    3  A    between atoms: C_5  and  O_6
REMARK    4  A    between atoms: C_8  and  C_9
REMARK    5  A    between atoms: C_10  and  C_11
REMARK                            x       y       z     vdW  Elec       q    Type
REMARK                         _______ _______ _______ _____ _____    ______ ____
ROOT
ATOM      1  C   UNL     1      33.089  23.001  69.635  0.00  0.00    +0.000 A 
ATOM      2  C   UNL     1      32.691  23.537  70.837  0.00  0.00    +0.000 A 
ATOM      3  C   UNL     1      31.809  22.846  71.644  0.00  0.00    +0.000 A 
ATOM      4  C   UNL     1      31.339  21.613  71.261  0.00  0.00    +0.000 A 
ATOM      5  C   UNL     1      31.754  21.052  70.074  0.00  0.00    +0.000 A 
ATOM      6  C   UNL     1      32.646  21.724  69.232  0.00  0.00    +0.000 A 
ENDROOT
BRANCH   1   8
ATOM      7  C   UNL     1      34.421  25.003  69.280  0.00  0.00    +0.000 C 
ATOM      8  O   UNL     1      33.933  23.733  68.873  0.00  0.00    +0.000 OA
ENDBRANCH   1   8
BRANCH   3   9
ATOM      9  O   UNL     1      31.386  23.414  72.876  0.00  0.00    +0.000 OA
ATOM     10  H   UNL     1      30.595  24.026  72.898  0.00  0.00    +0.000 HD
ENDBRANCH   3   9
BRANCH   5  11
ATOM     11  C   UNL     1      31.233  19.682  69.672  0.00  0.00    +0.000 C 
ATOM     12  C   UNL     1      31.732  18.564  70.264  0.00  0.00    +0.000 C 
BRANCH  12  13
ATOM     13  C   UNL     1      31.212  17.193  69.862  0.00  0.00    +0.000 A 
ATOM     14  C   UNL     1      32.071  16.181  69.466  0.00  0.00    +0.000 A 
ATOM     15  C   UNL     1      31.426  15.107  68.807  0.00  0.00    +0.000 A 
ATOM     16  C   UNL     1      30.129  14.867  68.859  0.00  0.00    +0.000 A 
ATOM     17  C   UNL     1      29.340  15.884  69.324  0.00  0.00    +0.000 A 
ATOM     18  C   UNL     1      29.895  17.019  69.862  0.00  0.00    +0.000 A 
ENDBRANCH  12  13
ENDBRANCH   5  11
TORSDOF 4
ENDMDL
