MODEL 1
REMARK VINA RESULT:    -7.501      0.000      0.000
REMARK INTER + INTRA:          12.878
REMARK INTER:                  -8.431
REMARK INTRA:                  21.310
REMARK UNBOUND:                21.257
REMARK  Name = 
REMARK  3 active torsions:
REMARK  status: ('A' for Active; 'I' for Inactive)
REMARK    1  A    between atoms: C_1  and  O_2
REMARK    2  A    between atoms: O_2  and  C_3
REMARK    3  A    between atoms: C_6  and  C_7
REMARK                            x       y       z     vdW  Elec       q    Type
REMARK                         _______ _______ _______ _____ _____    ______ ____
ROOT
ATOM      1  C   UNL     1      47.549  21.014  73.142  0.00  0.00    +0.000 A 
ATOM      2  C   UNL     1      46.703  20.637  74.245  0.00  0.00    +0.000 A 
ATOM      3  C   UNL     1      46.042  19.357  74.240  0.00  0.00    +0.000 A 
ATOM      4  O   UNL     1      45.295  19.024  75.213  0.00  0.00    +0.000 OA
ATOM      5  C   UNL     1      46.237  18.406  73.071  0.00  0.00    +0.000 A 
ATOM      6  C   UNL     1      45.169  17.842  72.394  0.00  0.00    +0.000 A 
ATOM      7  C   UNL     1      45.548  16.885  71.423  0.00  0.00    +0.000 A 
ATOM      8  C   UNL     1      46.764  16.768  70.919  0.00  0.00    +0.000 A 
ATOM      9  C   UNL     1      47.765  17.405  71.597  0.00  0.00    +0.000 A 
ATOM     10  C   UNL     1      47.484  18.254  72.642  0.00  0.00    +0.000 A 
ATOM     11  O   UNL     1      48.166  22.210  73.145  0.00  0.00    +0.000 OA
ENDROOT
BRANCH   1  15
ATOM     12  C   UNL     1      48.216  18.513  69.745  0.00  0.00    +0.000 A 
ATOM     13  C   UNL     1      49.207  18.602  70.710  0.00  0.00    +0.000 A 
ATOM     14  C   UNL     1      48.800  19.274  71.887  0.00  0.00    +0.000 A 
ATOM     15  C   UNL     1      47.745  20.062  71.973  0.00  0.00    +0.000 A 
ATOM     16  C   UNL     1      46.836  19.976  70.954  0.00  0.00    +0.000 A 
ATOM     17  C   UNL     1      47.105  19.234  69.830  0.00  0.00    +0.000 A 
BRANCH  12  19
ATOM     18  C   UNL     1      47.688  17.741  67.471  0.00  0.00    +0.000 C 
ATOM     19  O   UNL     1      48.316  17.528  68.726  0.00  0.00    +0.000 OA
ENDBRANCH  12  19
ENDBRANCH   1  15
TORSDOF 2
ENDMDL
MODEL 2
REMARK VINA RESULT:    -7.388      1.619      5.061
REMARK INTER + INTRA:          13.005
REMARK INTER:                  -8.295
REMARK INTRA:                  21.300
REMARK UNBOUND:                21.257
REMARK  Name = 
REMARK  3 active torsions:
REMARK  status: ('A' for Active; 'I' for Inactive)
REMARK    1  A    between atoms: C_1  and  O_2
REMARK    2  A    between atoms: O_2  and  C_3
REMARK    3  A    between atoms: C_6  and  C_7
REMARK                            x       y       z     vdW  Elec       q    Type
REMARK                         _______ _______ _______ _____ _____    ______ ____
ROOT
ATOM      1  C   UNL     1      45.077  17.782  69.037  0.00  0.00    +0.000 A 
ATOM      2  C   UNL     1      45.987  17.303  68.027  0.00  0.00    +0.000 A 
ATOM      3  C   UNL     1      47.407  17.352  68.259  0.00  0.00    +0.000 A 
ATOM      4  O   UNL     1      48.211  16.931  67.368  0.00  0.00    +0.000 OA
ATOM      5  C   UNL     1      47.947  17.909  69.566  0.00  0.00    +0.000 A 
ATOM      6  C   UNL     1      48.913  18.900  69.602  0.00  0.00    +0.000 A 
ATOM      7  C   UNL     1      49.381  19.197  70.904  0.00  0.00    +0.000 A 
ATOM      8  C   UNL     1      48.752  18.870  72.019  0.00  0.00    +0.000 A 
ATOM      9  C   UNL     1      47.761  17.935  71.906  0.00  0.00    +0.000 A 
ATOM     10  C   UNL     1      47.339  17.497  70.672  0.00  0.00    +0.000 A 
ATOM     11  O   UNL     1      43.750  17.736  68.822  0.00  0.00    +0.000 OA
ENDROOT
BRANCH   1  15
ATOM     12  C   UNL     1      46.368  19.408  72.768  0.00  0.00    +0.000 A 
ATOM     13  C   UNL     1      45.892  18.108  72.740  0.00  0.00    +0.000 A 
ATOM     14  C   UNL     1      45.700  17.597  71.434  0.00  0.00    +0.000 A 
ATOM     15  C   UNL     1      45.616  18.338  70.345  0.00  0.00    +0.000 A 
ATOM     16  C   UNL     1      46.039  19.634  70.456  0.00  0.00    +0.000 A 
ATOM     17  C   UNL     1      46.369  20.166  71.679  0.00  0.00    +0.000 A 
BRANCH  12  19
ATOM     18  C   UNL     1      46.438  20.984  74.655  0.00  0.00    +0.000 C 
ATOM     19  O   UNL     1      47.005  19.897  73.941  0.00  0.00    +0.000 OA
ENDBRANCH  12  19
ENDBRANCH   1  15
TORSDOF 2
ENDMDL
MODEL 3
REMARK VINA RESULT:    -7.215     15.832     17.161
REMARK INTER + INTRA:          13.198
REMARK INTER:                  -8.093
REMARK INTRA:                  21.291
REMARK UNBOUND:                21.257
REMARK  Name = 
REMARK  3 active torsions:
REMARK  status: ('A' for Active; 'I' for Inactive)
REMARK    1  A    between atoms: C_1  and  O_2
REMARK    2  A    between atoms: O_2  and  C_3
REMARK    3  A    between atoms: C_6  and  C_7
REMARK                            x       y       z     vdW  Elec       q    Type
REMARK                         _______ _______ _______ _____ _____    ______ ____
ROOT
ATOM      1  C   UNL     1      31.336  24.956  71.988  0.00  0.00    +0.000 A 
ATOM      2  C   UNL     1      30.593  23.981  71.232  0.00  0.00    +0.000 A 
ATOM      3  C   UNL     1      30.573  24.050  69.794  0.00  0.00    +0.000 A 
ATOM      4  O   UNL     1      29.917  23.190  69.126  0.00  0.00    +0.000 OA
ATOM      5  C   UNL     1      31.332  25.152  69.074  0.00  0.00    +0.000 A 
ATOM      6  C   UNL     1      30.732  25.965  68.128  0.00  0.00    +0.000 A 
ATOM      7  C   UNL     1      31.629  26.844  67.476  0.00  0.00    +0.000 A 
ATOM      8  C   UNL     1      32.830  27.160  67.926  0.00  0.00    +0.000 A 
ATOM      9  C   UNL     1      33.340  26.358  68.909  0.00  0.00    +0.000 A 
ATOM     10  C   UNL     1      32.567  25.389  69.504  0.00  0.00    +0.000 A 
ATOM     11  O   UNL     1      31.356  24.893  73.332  0.00  0.00    +0.000 OA
ENDROOT
BRANCH   1  15
ATOM     12  C   UNL     1      33.518  28.151  70.179  0.00  0.00    +0.000 A 
ATOM     13  C   UNL     1      34.218  27.054  70.654  0.00  0.00    +0.000 A 
ATOM     14  C   UNL     1      33.392  25.968  71.030  0.00  0.00    +0.000 A 
ATOM     15  C   UNL     1      32.097  26.058  71.269  0.00  0.00    +0.000 A 
ATOM     16  C   UNL     1      31.477  27.197  70.835  0.00  0.00    +0.000 A 
ATOM     17  C   UNL     1      32.203  28.250  70.335  0.00  0.00    +0.000 A 
BRANCH  12  19
ATOM     18  C   UNL     1      35.320  29.801  69.895  0.00  0.00    +0.000 C 
ATOM     19  O   UNL     1      34.186  29.119  69.382  0.00  0.00    +0.000 OA
ENDBRANCH  12  19
ENDBRANCH   1  15
TORSDOF 2
ENDMDL
MODEL 4
REMARK VINA RESULT:    -7.163     16.589     17.684
REMARK INTER + INTRA:          13.256
REMARK INTER:                  -7.992
REMARK INTRA:                  21.248
REMARK UNBOUND:                21.257
REMARK  Name = 
REMARK  3 active torsions:
REMARK  status: ('A' for Active; 'I' for Inactive)
REMARK    1  A    between atoms: C_1  and  O_2
REMARK    2  A    between atoms: O_2  and  C_3
REMARK    3  A    between atoms: C_6  and  C_7
REMARK                            x       y       z     vdW  Elec       q    Type
REMARK                         _______ _______ _______ _____ _____    ______ ____
ROOT
ATOM      1  C   UNL     1      30.734  24.927  70.707  0.00  0.00    +0.000 A 
ATOM      2  C   UNL     1      31.157  25.939  69.772  0.00  0.00    +0.000 A 
ATOM      3  C   UNL     1      31.315  25.609  68.379  0.00  0.00    +0.000 A 
ATOM      4  O   UNL     1      31.689  26.501  67.554  0.00  0.00    +0.000 OA
ATOM      5  C   UNL     1      31.036  24.196  67.895  0.00  0.00    +0.000 A 
ATOM      6  C   UNL     1      31.951  23.480  67.141  0.00  0.00    +0.000 A 
ATOM      7  C   UNL     1      31.463  22.236  66.677  0.00  0.00    +0.000 A 
ATOM      8  C   UNL     1      30.410  21.612  67.173  0.00  0.00    +0.000 A 
ATOM      9  C   UNL     1      29.581  22.355  67.965  0.00  0.00    +0.000 A 
ATOM     10  C   UNL     1      29.927  23.628  68.354  0.00  0.00    +0.000 A 
ATOM     11  O   UNL     1      30.586  25.234  72.008  0.00  0.00    +0.000 OA
ENDROOT
BRANCH   1  15
ATOM     12  C   UNL     1      29.918  20.891  69.575  0.00  0.00    +0.000 A 
ATOM     13  C   UNL     1      28.853  21.751  69.782  0.00  0.00    +0.000 A 
ATOM     14  C   UNL     1      29.232  23.106  69.935  0.00  0.00    +0.000 A 
ATOM     15  C   UNL     1      30.454  23.514  70.223  0.00  0.00    +0.000 A 
ATOM     16  C   UNL     1      31.455  22.596  70.064  0.00  0.00    +0.000 A 
ATOM     17  C   UNL     1      31.170  21.281  69.785  0.00  0.00    +0.000 A 
BRANCH  12  19
ATOM     18  C   UNL     1      30.490  18.508  69.367  0.00  0.00    +0.000 C 
ATOM     19  O   UNL     1      29.689  19.617  68.990  0.00  0.00    +0.000 OA
ENDBRANCH  12  19
ENDBRANCH   1  15
TORSDOF 2
ENDMDL
MODEL 5
REMARK VINA RESULT:    -7.126     15.981     17.369
REMARK INTER + INTRA:          13.297
REMARK INTER:                  -7.959
REMARK INTRA:                  21.257
REMARK UNBOUND:                21.257
REMARK  Name = 
REMARK  3 active torsions:
REMARK  status: ('A' for Active; 'I' for Inactive)
REMARK    1  A    between atoms: C_1  and  O_2
REMARK    2  A    between atoms: O_2  and  C_3
REMARK    3  A    between atoms: C_6  and  C_7
REMARK                            x       y       z     vdW  Elec       q    Type
REMARK                         _______ _______ _______ _____ _____    ______ ____
ROOT
ATOM      1  C   UNL     1      32.123  23.519  67.393  0.00  0.00    +0.000 A 
ATOM      2  C   UNL     1      31.013  22.792  67.953  0.00  0.00    +0.000 A 
ATOM      3  C   UNL     1      30.245  23.366  69.027  0.00  0.00    +0.000 A 
ATOM      4  O   UNL     1      29.266  22.724  69.522  0.00  0.00    +0.000 OA
ATOM      5  C   UNL     1      30.607  24.738  69.572  0.00  0.00    +0.000 A 
ATOM      6  C   UNL     1      30.807  24.965  70.923  0.00  0.00    +0.000 A 
ATOM      7  C   UNL     1      31.008  26.327  71.252  0.00  0.00    +0.000 A 
ATOM      8  C   UNL     1      31.344  27.265  70.384  0.00  0.00    +0.000 A 
ATOM      9  C   UNL     1      31.188  26.954  69.062  0.00  0.00    +0.000 A 
ATOM     10  C   UNL     1      30.863  25.677  68.669  0.00  0.00    +0.000 A 
ATOM     11  O   UNL     1      32.841  22.984  66.389  0.00  0.00    +0.000 OA
ENDROOT
BRANCH   1  15
ATOM     12  C   UNL     1      33.332  27.373  68.781  0.00  0.00    +0.000 A 
ATOM     13  C   UNL     1      32.597  27.289  67.610  0.00  0.00    +0.000 A 
ATOM     14  C   UNL     1      32.065  26.002  67.360  0.00  0.00    +0.000 A 
ATOM     15  C   UNL     1      32.485  24.892  67.937  0.00  0.00    +0.000 A 
ATOM     16  C   UNL     1      33.264  25.043  69.051  0.00  0.00    +0.000 A 
ATOM     17  C   UNL     1      33.715  26.283  69.434  0.00  0.00    +0.000 A 
BRANCH  12  19
ATOM     18  C   UNL     1      34.752  28.882  70.107  0.00  0.00    +0.000 C 
ATOM     19  O   UNL     1      33.557  28.642  69.380  0.00  0.00    +0.000 OA
ENDBRANCH  12  19
ENDBRANCH   1  15
TORSDOF 2
ENDMDL
