MODEL 1
REMARK VINA RESULT:    -7.448      0.000      0.000
REMARK INTER + INTRA:          -9.858
REMARK INTER:                  -9.077
REMARK INTRA:                  -0.781
REMARK UNBOUND:                -0.886
REMARK  Name = 
REMARK  6 active torsions:
REMARK  status: ('A' for Active; 'I' for Inactive)
REMARK    1  A    between atoms: C_1  and  C_2
REMARK    2  A    between atoms: C_6  and  N_7
REMARK    3  A    between atoms: N_7  and  C_8
REMARK    4  A    between atoms: C_13  and  C_14
REMARK    5  A    between atoms: C_14  and  O_16
REMARK    6  A    between atoms: C_17  and  C_18
REMARK                            x       y       z     vdW  Elec       q    Type
REMARK                         _______ _______ _______ _____ _____    ______ ____
ROOT
ATOM      1  N   UNL     1      34.373  24.288  68.810  0.00  0.00    +0.000 N 
ATOM      2  H   UNL     1      35.078  23.977  68.141  0.00  0.00    +0.000 HD
ENDROOT
BRANCH   1   8
ATOM      3  C   UNL     1      32.243  28.758  68.230  0.00  0.00    +0.000 C 
ATOM      4  C   UNL     1      33.252  27.850  68.879  0.00  0.00    +0.000 A 
ATOM      5  C   UNL     1      34.125  28.362  69.828  0.00  0.00    +0.000 A 
ATOM      6  C   UNL     1      35.061  27.558  70.453  0.00  0.00    +0.000 A 
ATOM      7  C   UNL     1      35.117  26.211  70.139  0.00  0.00    +0.000 A 
ATOM      8  C   UNL     1      34.277  25.710  69.168  0.00  0.00    +0.000 A 
ATOM      9  C   UNL     1      33.346  26.500  68.520  0.00  0.00    +0.000 A 
ATOM     10  C   UNL     1      32.464  25.896  67.450  0.00  0.00    +0.000 C 
ENDBRANCH   1   8
BRANCH   1  11
ATOM     11  C   UNL     1      33.456  23.313  69.416  0.00  0.00    +0.000 A 
ATOM     12  C   UNL     1      32.881  23.588  70.646  0.00  0.00    +0.000 A 
ATOM     13  C   UNL     1      32.261  22.470  71.252  0.00  0.00    +0.000 A 
ATOM     14  C   UNL     1      31.917  21.367  70.614  0.00  0.00    +0.000 A 
ATOM     15  C   UNL     1      32.465  21.186  69.374  0.00  0.00    +0.000 A 
ATOM     16  C   UNL     1      33.193  22.182  68.770  0.00  0.00    +0.000 A 
BRANCH  16  17
ATOM     17  C   UNL     1      33.702  21.990  67.351  0.00  0.00    +0.000 C 
ATOM     18  O   UNL     1      33.154  22.614  66.390  0.00  0.00    +0.000 OA
BRANCH  17  19
ATOM     19  O   UNL     1      34.791  21.113  67.101  0.00  0.00    +0.000 OA
ATOM     20  H   UNL     1      34.653  20.289  66.551  0.00  0.00    +0.000 HD
ENDBRANCH  17  19
ENDBRANCH  16  17
ENDBRANCH   1  11
TORSDOF 4
ENDMDL
MODEL 2
REMARK VINA RESULT:    -7.238     13.113     14.437
REMARK INTER + INTRA:          -9.605
REMARK INTER:                  -8.853
REMARK INTRA:                  -0.752
REMARK UNBOUND:                -0.886
REMARK  Name = 
REMARK  6 active torsions:
REMARK  status: ('A' for Active; 'I' for Inactive)
REMARK    1  A    between atoms: C_1  and  C_2
REMARK    2  A    between atoms: C_6  and  N_7
REMARK    3  A    between atoms: N_7  and  C_8
REMARK    4  A    between atoms: C_13  and  C_14
REMARK    5  A    between atoms: C_14  and  O_16
REMARK    6  A    between atoms: C_17  and  C_18
REMARK                            x       y       z     vdW  Elec       q    Type
REMARK                         _______ _______ _______ _____ _____    ______ ____
ROOT
ATOM      1  N   UNL     1      45.382  18.872  69.613  0.00  0.00    +0.000 N 
ATOM      2  H   UNL     1      45.321  19.412  70.475  0.00  0.00    +0.000 HD
ENDROOT
BRANCH   1   8
ATOM      3  C   UNL     1      49.714  19.343  67.190  0.00  0.00    +0.000 C 
ATOM      4  C   UNL     1      48.240  19.614  67.325  0.00  0.00    +0.000 A 
ATOM      5  C   UNL     1      47.593  20.380  66.366  0.00  0.00    +0.000 A 
ATOM      6  C   UNL     1      46.238  20.642  66.450  0.00  0.00    +0.000 A 
ATOM      7  C   UNL     1      45.507  20.118  67.502  0.00  0.00    +0.000 A 
ATOM      8  C   UNL     1      46.157  19.389  68.476  0.00  0.00    +0.000 A 
ATOM      9  C   UNL     1      47.514  19.129  68.419  0.00  0.00    +0.000 A 
ATOM     10  C   UNL     1      48.173  18.339  69.527  0.00  0.00    +0.000 C 
ENDBRANCH   1   8
BRANCH   1  11
ATOM     11  C   UNL     1      44.694  17.579  69.505  0.00  0.00    +0.000 A 
ATOM     12  C   UNL     1      44.076  17.229  68.315  0.00  0.00    +0.000 A 
ATOM     13  C   UNL     1      43.212  16.114  68.422  0.00  0.00    +0.000 A 
ATOM     14  C   UNL     1      43.231  15.246  69.417  0.00  0.00    +0.000 A 
ATOM     15  C   UNL     1      43.915  15.622  70.540  0.00  0.00    +0.000 A 
ATOM     16  C   UNL     1      44.676  16.765  70.555  0.00  0.00    +0.000 A 
BRANCH  16  17
ATOM     17  C   UNL     1      45.505  17.102  71.783  0.00  0.00    +0.000 C 
ATOM     18  O   UNL     1      45.096  17.980  72.605  0.00  0.00    +0.000 OA
BRANCH  17  19
ATOM     19  O   UNL     1      46.738  16.436  72.011  0.00  0.00    +0.000 OA
ATOM     20  H   UNL     1      47.331  16.725  72.763  0.00  0.00    +0.000 HD
ENDBRANCH  17  19
ENDBRANCH  16  17
ENDBRANCH   1  11
TORSDOF 4
ENDMDL
MODEL 3
REMARK VINA RESULT:    -7.234      3.387      6.218
REMARK INTER + INTRA:          -9.601
REMARK INTER:                  -8.790
REMARK INTRA:                  -0.811
REMARK UNBOUND:                -0.886
REMARK  Name = 
REMARK  6 active torsions:
REMARK  status: ('A' for Active; 'I' for Inactive)
REMARK    1  A    between atoms: C_1  and  C_2
REMARK    2  A    between atoms: C_6  and  N_7
REMARK    3  A    between atoms: N_7  and  C_8
REMARK    4  A    between atoms: C_13  and  C_14
REMARK    5  A    between atoms: C_14  and  O_16
REMARK    6  A    between atoms: C_17  and  C_18
REMARK                            x       y       z     vdW  Elec       q    Type
REMARK                         _______ _______ _______ _____ _____    ______ ____
ROOT
ATOM      1  N   UNL     1      31.966  22.816  71.665  0.00  0.00    +0.000 N 
ATOM      2  H   UNL     1      31.723  22.860  72.655  0.00  0.00    +0.000 HD
ENDROOT
BRANCH   1   8
ATOM      3  C   UNL     1      28.664  20.874  68.473  0.00  0.00    +0.000 C 
ATOM      4  C   UNL     1      29.906  20.769  69.317  0.00  0.00    +0.000 A 
ATOM      5  C   UNL     1      30.623  19.581  69.335  0.00  0.00    +0.000 A 
ATOM      6  C   UNL     1      31.775  19.448  70.090  0.00  0.00    +0.000 A 
ATOM      7  C   UNL     1      32.231  20.525  70.830  0.00  0.00    +0.000 A 
ATOM      8  C   UNL     1      31.497  21.692  70.842  0.00  0.00    +0.000 A 
ATOM      9  C   UNL     1      30.336  21.840  70.108  0.00  0.00    +0.000 A 
ATOM     10  C   UNL     1      29.565  23.140  70.178  0.00  0.00    +0.000 C 
ENDBRANCH   1   8
BRANCH   1  11
ATOM     11  C   UNL     1      32.785  23.877  71.062  0.00  0.00    +0.000 A 
ATOM     12  C   UNL     1      33.700  23.555  70.073  0.00  0.00    +0.000 A 
ATOM     13  C   UNL     1      34.619  24.591  69.783  0.00  0.00    +0.000 A 
ATOM     14  C   UNL     1      34.451  25.857  70.117  0.00  0.00    +0.000 A 
ATOM     15  C   UNL     1      33.485  26.117  71.049  0.00  0.00    +0.000 A 
ATOM     16  C   UNL     1      32.633  25.129  71.479  0.00  0.00    +0.000 A 
BRANCH  16  17
ATOM     17  C   UNL     1      31.505  25.471  72.439  0.00  0.00    +0.000 C 
ATOM     18  O   UNL     1      30.639  26.343  72.117  0.00  0.00    +0.000 OA
BRANCH  17  19
ATOM     19  O   UNL     1      31.419  24.815  73.695  0.00  0.00    +0.000 OA
ATOM     20  H   UNL     1      30.602  24.926  74.262  0.00  0.00    +0.000 HD
ENDBRANCH  17  19
ENDBRANCH  16  17
ENDBRANCH   1  11
TORSDOF 4
ENDMDL
MODEL 4
REMARK VINA RESULT:    -7.121     13.373     14.740
REMARK INTER + INTRA:          -9.465
REMARK INTER:                  -8.510
REMARK INTRA:                  -0.955
REMARK UNBOUND:                -0.886
REMARK  Name = 
REMARK  6 active torsions:
REMARK  status: ('A' for Active; 'I' for Inactive)
REMARK    1  A    between atoms: C_1  and  C_2
REMARK    2  A    between atoms: C_6  and  N_7
REMARK    3  A    between atoms: N_7  and  C_8
REMARK    4  A    between atoms: C_13  and  C_14
REMARK    5  A    between atoms: C_14  and  O_16
REMARK    6  A    between atoms: C_17  and  C_18
REMARK                            x       y       z     vdW  Elec       q    Type
REMARK                         _______ _______ _______ _____ _____    ______ ____
ROOT
ATOM      1  N   UNL     1      45.320  18.670  69.186  0.00  0.00    +0.000 N 
ATOM      2  H   UNL     1      44.355  18.590  68.869  0.00  0.00    +0.000 HD
ENDROOT
BRANCH   1   8
ATOM      3  C   UNL     1      48.193  20.369  65.482  0.00  0.00    +0.000 C 
ATOM      4  C   UNL     1      47.792  19.295  66.457  0.00  0.00    +0.000 A 
ATOM      5  C   UNL     1      48.468  18.082  66.457  0.00  0.00    +0.000 A 
ATOM      6  C   UNL     1      48.136  17.074  67.344  0.00  0.00    +0.000 A 
ATOM      7  C   UNL     1      47.122  17.283  68.262  0.00  0.00    +0.000 A 
ATOM      8  C   UNL     1      46.425  18.473  68.237  0.00  0.00    +0.000 A 
ATOM      9  C   UNL     1      46.730  19.486  67.348  0.00  0.00    +0.000 A 
ATOM     10  C   UNL     1      45.917  20.762  67.357  0.00  0.00    +0.000 C 
ENDBRANCH   1   8
BRANCH   1  11
ATOM     11  C   UNL     1      45.608  18.980  70.594  0.00  0.00    +0.000 A 
ATOM     12  C   UNL     1      45.985  20.266  70.947  0.00  0.00    +0.000 A 
ATOM     13  C   UNL     1      46.511  20.370  72.257  0.00  0.00    +0.000 A 
ATOM     14  C   UNL     1      46.349  19.464  73.203  0.00  0.00    +0.000 A 
ATOM     15  C   UNL     1      45.909  18.234  72.798  0.00  0.00    +0.000 A 
ATOM     16  C   UNL     1      45.501  18.019  71.504  0.00  0.00    +0.000 A 
BRANCH  16  17
ATOM     17  C   UNL     1      44.922  16.670  71.110  0.00  0.00    +0.000 C 
ATOM     18  O   UNL     1      43.758  16.601  70.605  0.00  0.00    +0.000 OA
BRANCH  17  19
ATOM     19  O   UNL     1      45.683  15.487  71.305  0.00  0.00    +0.000 OA
ATOM     20  H   UNL     1      45.257  14.681  71.718  0.00  0.00    +0.000 HD
ENDBRANCH  17  19
ENDBRANCH  16  17
ENDBRANCH   1  11
TORSDOF 4
ENDMDL
MODEL 5
REMARK VINA RESULT:    -7.119      2.997      4.240
REMARK INTER + INTRA:          -9.462
REMARK INTER:                  -8.576
REMARK INTRA:                  -0.886
REMARK UNBOUND:                -0.886
REMARK  Name = 
REMARK  6 active torsions:
REMARK  status: ('A' for Active; 'I' for Inactive)
REMARK    1  A    between atoms: C_1  and  C_2
REMARK    2  A    between atoms: C_6  and  N_7
REMARK    3  A    between atoms: N_7  and  C_8
REMARK    4  A    between atoms: C_13  and  C_14
REMARK    5  A    between atoms: C_14  and  O_16
REMARK    6  A    between atoms: C_17  and  C_18
REMARK                            x       y       z     vdW  Elec       q    Type
REMARK                         _______ _______ _______ _____ _____    ______ ____
ROOT
ATOM      1  N   UNL     1      32.367  26.876  70.262  0.00  0.00    +0.000 N 
ATOM      2  H   UNL     1      32.309  27.301  71.188  0.00  0.00    +0.000 HD
ENDROOT
BRANCH   1   8
ATOM      3  C   UNL     1      33.053  30.515  66.924  0.00  0.00    +0.000 C 
ATOM      4  C   UNL     1      32.249  29.375  67.489  0.00  0.00    +0.000 A 
ATOM      5  C   UNL     1      31.044  29.026  66.896  0.00  0.00    +0.000 A 
ATOM      6  C   UNL     1      30.282  27.978  67.380  0.00  0.00    +0.000 A 
ATOM      7  C   UNL     1      30.736  27.252  68.468  0.00  0.00    +0.000 A 
ATOM      8  C   UNL     1      31.913  27.625  69.081  0.00  0.00    +0.000 A 
ATOM      9  C   UNL     1      32.682  28.678  68.623  0.00  0.00    +0.000 A 
ATOM     10  C   UNL     1      33.955  29.050  69.350  0.00  0.00    +0.000 C 
ENDBRANCH   1   8
BRANCH   1  11
ATOM     11  C   UNL     1      32.902  25.516  70.110  0.00  0.00    +0.000 A 
ATOM     12  C   UNL     1      33.601  25.181  68.961  0.00  0.00    +0.000 A 
ATOM     13  C   UNL     1      33.808  23.791  68.801  0.00  0.00    +0.000 A 
ATOM     14  C   UNL     1      33.696  22.900  69.769  0.00  0.00    +0.000 A 
ATOM     15  C   UNL     1      33.055  23.313  70.904  0.00  0.00    +0.000 A 
ATOM     16  C   UNL     1      32.705  24.630  71.079  0.00  0.00    +0.000 A 
BRANCH  16  17
ATOM     17  C   UNL     1      32.086  25.077  72.393  0.00  0.00    +0.000 C 
ATOM     18  O   UNL     1      30.840  25.315  72.461  0.00  0.00    +0.000 OA
BRANCH  17  19
ATOM     19  O   UNL     1      32.901  25.229  73.546  0.00  0.00    +0.000 OA
ATOM     20  H   UNL     1      33.332  26.110  73.741  0.00  0.00    +0.000 HD
ENDBRANCH  17  19
ENDBRANCH  16  17
ENDBRANCH   1  11
TORSDOF 4
ENDMDL
