MODEL 1
REMARK VINA RESULT:    -7.701      0.000      0.000
REMARK INTER + INTRA:          10.191
REMARK INTER:                  -9.114
REMARK INTRA:                  19.305
REMARK UNBOUND:                19.243
REMARK  Name = 
REMARK  5 active torsions:
REMARK  status: ('A' for Active; 'I' for Inactive)
REMARK    1  A    between atoms: C_1  and  O_2
REMARK    2  A    between atoms: O_2  and  C_3
REMARK    3  A    between atoms: C_6  and  O_7
REMARK    4  A    between atoms: O_7  and  C_8
REMARK    5  A    between atoms: C_9  and  C_10
REMARK                            x       y       z     vdW  Elec       q    Type
REMARK                         _______ _______ _______ _____ _____    ______ ____
ROOT
ATOM      1  C   UNL     1      47.499  20.913  73.173  0.00  0.00    +0.000 A 
ATOM      2  C   UNL     1      46.649  20.492  74.257  0.00  0.00    +0.000 A 
ATOM      3  C   UNL     1      45.959  19.230  74.184  0.00  0.00    +0.000 A 
ATOM      4  O   UNL     1      45.210  18.860  75.140  0.00  0.00    +0.000 OA
ATOM      5  C   UNL     1      46.128  18.342  72.961  0.00  0.00    +0.000 A 
ATOM      6  C   UNL     1      45.014  17.754  72.388  0.00  0.00    +0.000 A 
ATOM      7  C   UNL     1      45.319  16.733  71.456  0.00  0.00    +0.000 A 
ATOM      8  C   UNL     1      46.500  16.568  70.887  0.00  0.00    +0.000 A 
ATOM      9  C   UNL     1      47.550  17.230  71.461  0.00  0.00    +0.000 A 
ATOM     10  C   UNL     1      47.343  18.146  72.464  0.00  0.00    +0.000 A 
ATOM     11  O   UNL     1      48.143  22.093  73.242  0.00  0.00    +0.000 OA
ENDROOT
BRANCH   1  16
ATOM     12  C   UNL     1      48.998  18.515  70.742  0.00  0.00    +0.000 A 
ATOM     13  C   UNL     1      48.038  18.422  69.747  0.00  0.00    +0.000 A 
ATOM     14  C   UNL     1      46.990  19.364  69.872  0.00  0.00    +0.000 A 
ATOM     15  C   UNL     1      46.708  20.029  70.978  0.00  0.00    +0.000 A 
ATOM     16  C   UNL     1      47.668  20.025  71.951  0.00  0.00    +0.000 A 
ATOM     17  C   UNL     1      48.783  19.231  71.840  0.00  0.00    +0.000 A 
BRANCH  12  19
ATOM     18  C   UNL     1      50.497  17.102  69.399  0.00  0.00    +0.000 C 
ATOM     19  O   UNL     1      50.284  17.961  70.509  0.00  0.00    +0.000 OA
ENDBRANCH  12  19
BRANCH  15  20
ATOM     20  O   UNL     1      45.473  20.710  71.147  0.00  0.00    +0.000 OA
ATOM     21  C   UNL     1      44.840  21.318  70.032  0.00  0.00    +0.000 C 
ENDBRANCH  15  20
ENDBRANCH   1  16
TORSDOF 3
ENDMDL
MODEL 2
REMARK VINA RESULT:    -7.439     13.735     16.610
REMARK INTER + INTRA:          10.499
REMARK INTER:                  -8.729
REMARK INTRA:                  19.228
REMARK UNBOUND:                19.243
REMARK  Name = 
REMARK  5 active torsions:
REMARK  status: ('A' for Active; 'I' for Inactive)
REMARK    1  A    between atoms: C_1  and  O_2
REMARK    2  A    between atoms: O_2  and  C_3
REMARK    3  A    between atoms: C_6  and  O_7
REMARK    4  A    between atoms: O_7  and  C_8
REMARK    5  A    between atoms: C_9  and  C_10
REMARK                            x       y       z     vdW  Elec       q    Type
REMARK                         _______ _______ _______ _____ _____    ______ ____
ROOT
ATOM      1  C   UNL     1      34.577  27.971  70.840  0.00  0.00    +0.000 A 
ATOM      2  C   UNL     1      35.717  27.143  70.542  0.00  0.00    +0.000 A 
ATOM      3  C   UNL     1      35.573  26.007  69.669  0.00  0.00    +0.000 A 
ATOM      4  O   UNL     1      36.579  25.277  69.407  0.00  0.00    +0.000 OA
ATOM      5  C   UNL     1      34.218  25.681  69.062  0.00  0.00    +0.000 A 
ATOM      6  C   UNL     1      33.769  24.371  69.062  0.00  0.00    +0.000 A 
ATOM      7  C   UNL     1      32.651  24.148  68.223  0.00  0.00    +0.000 A 
ATOM      8  C   UNL     1      31.861  25.100  67.760  0.00  0.00    +0.000 A 
ATOM      9  C   UNL     1      32.333  26.380  67.851  0.00  0.00    +0.000 A 
ATOM     10  C   UNL     1      33.487  26.660  68.543  0.00  0.00    +0.000 A 
ATOM     11  O   UNL     1      34.711  29.033  71.656  0.00  0.00    +0.000 OA
ENDROOT
BRANCH   1  16
ATOM     12  C   UNL     1      31.591  28.110  68.610  0.00  0.00    +0.000 A 
ATOM     13  C   UNL     1      30.766  27.117  69.112  0.00  0.00    +0.000 A 
ATOM     14  C   UNL     1      31.206  26.575  70.342  0.00  0.00    +0.000 A 
ATOM     15  C   UNL     1      32.432  26.695  70.818  0.00  0.00    +0.000 A 
ATOM     16  C   UNL     1      33.221  27.645  70.233  0.00  0.00    +0.000 A 
ATOM     17  C   UNL     1      32.807  28.312  69.106  0.00  0.00    +0.000 A 
BRANCH  12  19
ATOM     18  C   UNL     1      31.945  29.796  66.853  0.00  0.00    +0.000 C 
ATOM     19  O   UNL     1      31.066  29.021  67.655  0.00  0.00    +0.000 OA
ENDBRANCH  12  19
BRANCH  15  20
ATOM     20  O   UNL     1      32.907  25.877  71.879  0.00  0.00    +0.000 OA
ATOM     21  C   UNL     1      32.069  24.872  72.428  0.00  0.00    +0.000 C 
ENDBRANCH  15  20
ENDBRANCH   1  16
TORSDOF 3
ENDMDL
MODEL 3
REMARK VINA RESULT:    -7.430     14.611     16.753
REMARK INTER + INTRA:          10.510
REMARK INTER:                  -8.758
REMARK INTRA:                  19.267
REMARK UNBOUND:                19.243
REMARK  Name = 
REMARK  5 active torsions:
REMARK  status: ('A' for Active; 'I' for Inactive)
REMARK    1  A    between atoms: C_1  and  O_2
REMARK    2  A    between atoms: O_2  and  C_3
REMARK    3  A    between atoms: C_6  and  O_7
REMARK    4  A    between atoms: O_7  and  C_8
REMARK    5  A    between atoms: C_9  and  C_10
REMARK                            x       y       z     vdW  Elec       q    Type
REMARK                         _______ _______ _______ _____ _____    ______ ____
ROOT
ATOM      1  C   UNL     1      34.001  27.506  70.604  0.00  0.00    +0.000 A 
ATOM      2  C   UNL     1      33.433  28.446  69.672  0.00  0.00    +0.000 A 
ATOM      3  C   UNL     1      32.242  28.104  68.938  0.00  0.00    +0.000 A 
ATOM      4  O   UNL     1      31.742  28.933  68.116  0.00  0.00    +0.000 OA
ATOM      5  C   UNL     1      31.584  26.749  69.148  0.00  0.00    +0.000 A 
ATOM      6  C   UNL     1      31.167  26.017  68.049  0.00  0.00    +0.000 A 
ATOM      7  C   UNL     1      30.319  24.931  68.371  0.00  0.00    +0.000 A 
ATOM      8  C   UNL     1      30.201  24.406  69.577  0.00  0.00    +0.000 A 
ATOM      9  C   UNL     1      30.693  25.148  70.615  0.00  0.00    +0.000 A 
ATOM     10  C   UNL     1      31.420  26.291  70.383  0.00  0.00    +0.000 A 
ATOM     11  O   UNL     1      35.114  27.826  71.289  0.00  0.00    +0.000 OA
ENDROOT
BRANCH   1  16
ATOM     12  C   UNL     1      31.971  24.775  72.129  0.00  0.00    +0.000 A 
ATOM     13  C   UNL     1      32.149  23.714  71.257  0.00  0.00    +0.000 A 
ATOM     14  C   UNL     1      33.140  23.941  70.273  0.00  0.00    +0.000 A 
ATOM     15  C   UNL     1      33.611  25.131  69.945  0.00  0.00    +0.000 A 
ATOM     16  C   UNL     1      33.343  26.151  70.813  0.00  0.00    +0.000 A 
ATOM     17  C   UNL     1      32.488  25.972  71.873  0.00  0.00    +0.000 A 
BRANCH  12  19
ATOM     18  C   UNL     1      32.046  24.857  74.587  0.00  0.00    +0.000 C 
ATOM     19  O   UNL     1      31.358  24.533  73.388  0.00  0.00    +0.000 OA
ENDBRANCH  12  19
BRANCH  15  20
ATOM     20  O   UNL     1      34.355  25.338  68.752  0.00  0.00    +0.000 OA
ATOM     21  C   UNL     1      34.399  24.325  67.759  0.00  0.00    +0.000 C 
ENDBRANCH  15  20
ENDBRANCH   1  16
TORSDOF 3
ENDMDL
MODEL 4
REMARK VINA RESULT:    -7.427     15.377     17.439
REMARK INTER + INTRA:          10.513
REMARK INTER:                  -8.916
REMARK INTRA:                  19.429
REMARK UNBOUND:                19.243
REMARK  Name = 
REMARK  5 active torsions:
REMARK  status: ('A' for Active; 'I' for Inactive)
REMARK    1  A    between atoms: C_1  and  O_2
REMARK    2  A    between atoms: O_2  and  C_3
REMARK    3  A    between atoms: C_6  and  O_7
REMARK    4  A    between atoms: O_7  and  C_8
REMARK    5  A    between atoms: C_9  and  C_10
REMARK                            x       y       z     vdW  Elec       q    Type
REMARK                         _______ _______ _______ _____ _____    ______ ____
ROOT
ATOM      1  C   UNL     1      29.819  23.653  68.258  0.00  0.00    +0.000 A 
ATOM      2  C   UNL     1      30.695  23.074  67.273  0.00  0.00    +0.000 A 
ATOM      3  C   UNL     1      32.098  23.398  67.278  0.00  0.00    +0.000 A 
ATOM      4  O   UNL     1      32.871  22.888  66.408  0.00  0.00    +0.000 OA
ATOM      5  C   UNL     1      32.654  24.352  68.324  0.00  0.00    +0.000 A 
ATOM      6  C   UNL     1      33.532  25.350  67.937  0.00  0.00    +0.000 A 
ATOM      7  C   UNL     1      34.201  25.976  69.015  0.00  0.00    +0.000 A 
ATOM      8  C   UNL     1      33.808  25.916  70.275  0.00  0.00    +0.000 A 
ATOM      9  C   UNL     1      32.888  24.952  70.581  0.00  0.00    +0.000 A 
ATOM     10  C   UNL     1      32.288  24.210  69.591  0.00  0.00    +0.000 A 
ATOM     11  O   UNL     1      28.507  23.350  68.254  0.00  0.00    +0.000 OA
ENDROOT
BRANCH   1  16
ATOM     12  C   UNL     1      31.059  24.969  71.520  0.00  0.00    +0.000 A 
ATOM     13  C   UNL     1      31.353  26.294  71.242  0.00  0.00    +0.000 A 
ATOM     14  C   UNL     1      30.913  26.725  69.969  0.00  0.00    +0.000 A 
ATOM     15  C   UNL     1      30.585  25.917  68.977  0.00  0.00    +0.000 A 
ATOM     16  C   UNL     1      30.375  24.607  69.304  0.00  0.00    +0.000 A 
ATOM     17  C   UNL     1      30.657  24.138  70.564  0.00  0.00    +0.000 A 
BRANCH  12  19
ATOM     18  C   UNL     1      32.088  24.916  73.754  0.00  0.00    +0.000 C 
ATOM     19  O   UNL     1      31.038  24.540  72.873  0.00  0.00    +0.000 OA
ENDBRANCH  12  19
BRANCH  15  20
ATOM     20  O   UNL     1      30.460  26.384  67.641  0.00  0.00    +0.000 OA
ATOM     21  C   UNL     1      30.603  27.768  67.358  0.00  0.00    +0.000 C 
ENDBRANCH  15  20
ENDBRANCH   1  16
TORSDOF 3
ENDMDL
MODEL 5
REMARK VINA RESULT:    -7.284     14.959     17.736
REMARK INTER + INTRA:          10.681
REMARK INTER:                  -8.562
REMARK INTRA:                  19.243
REMARK UNBOUND:                19.243
REMARK  Name = 
REMARK  5 active torsions:
REMARK  status: ('A' for Active; 'I' for Inactive)
REMARK    1  A    between atoms: C_1  and  O_2
REMARK    2  A    between atoms: O_2  and  C_3
REMARK    3  A    between atoms: C_6  and  O_7
REMARK    4  A    between atoms: O_7  and  C_8
REMARK    5  A    between atoms: C_9  and  C_10
REMARK                            x       y       z     vdW  Elec       q    Type
REMARK                         _______ _______ _______ _____ _____    ______ ____
ROOT
ATOM      1  C   UNL     1      30.287  24.373  68.892  0.00  0.00    +0.000 A 
ATOM      2  C   UNL     1      30.221  24.298  70.329  0.00  0.00    +0.000 A 
ATOM      3  C   UNL     1      30.990  25.211  71.134  0.00  0.00    +0.000 A 
ATOM      4  O   UNL     1      30.931  25.143  72.401  0.00  0.00    +0.000 OA
ATOM      5  C   UNL     1      31.872  26.254  70.468  0.00  0.00    +0.000 A 
ATOM      6  C   UNL     1      33.159  26.458  70.936  0.00  0.00    +0.000 A 
ATOM      7  C   UNL     1      33.770  27.635  70.443  0.00  0.00    +0.000 A 
ATOM      8  C   UNL     1      33.358  28.302  69.379  0.00  0.00    +0.000 A 
ATOM      9  C   UNL     1      32.103  28.007  68.923  0.00  0.00    +0.000 A 
ATOM     10  C   UNL     1      31.392  26.953  69.446  0.00  0.00    +0.000 A 
ATOM     11  O   UNL     1      29.568  23.520  68.139  0.00  0.00    +0.000 OA
ENDROOT
BRANCH   1  16
ATOM     12  C   UNL     1      31.341  27.475  67.110  0.00  0.00    +0.000 A 
ATOM     13  C   UNL     1      32.713  27.326  66.986  0.00  0.00    +0.000 A 
ATOM     14  C   UNL     1      33.185  26.044  67.354  0.00  0.00    +0.000 A 
ATOM     15  C   UNL     1      32.507  25.176  68.082  0.00  0.00    +0.000 A 
ATOM     16  C   UNL     1      31.169  25.417  68.225  0.00  0.00    +0.000 A 
ATOM     17  C   UNL     1      30.609  26.588  67.775  0.00  0.00    +0.000 A 
BRANCH  12  19
ATOM     18  C   UNL     1      29.277  28.572  66.343  0.00  0.00    +0.000 C 
ATOM     19  O   UNL     1      30.695  28.510  66.384  0.00  0.00    +0.000 OA
ENDBRANCH  12  19
BRANCH  15  20
ATOM     20  O   UNL     1      33.135  24.054  68.686  0.00  0.00    +0.000 OA
ATOM     21  C   UNL     1      33.611  22.988  67.879  0.00  0.00    +0.000 C 
ENDBRANCH  15  20
ENDBRANCH   1  16
TORSDOF 3
ENDMDL
