MODEL 1
REMARK VINA RESULT:    -7.409      0.000      0.000
REMARK INTER + INTRA:           8.463
REMARK INTER:                  -8.066
REMARK INTRA:                  16.529
REMARK UNBOUND:                16.522
REMARK  Name = 
REMARK  2 active torsions:
REMARK  status: ('A' for Active; 'I' for Inactive)
REMARK    1  A    between atoms: C_4  and  C_7
REMARK    2  A    between atoms: C_12  and  O_18
REMARK                            x       y       z     vdW  Elec       q    Type
REMARK                         _______ _______ _______ _____ _____    ______ ____
ROOT
ATOM      1  C   UNL     1      30.744  23.861  70.552  0.00  0.00    +0.000 A 
ATOM      2  C   UNL     1      31.334  24.871  69.713  0.00  0.00    +0.000 A 
ATOM      3  C   UNL     1      31.480  24.637  68.299  0.00  0.00    +0.000 A 
ATOM      4  O   UNL     1      32.001  25.529  67.559  0.00  0.00    +0.000 OA
ATOM      5  C   UNL     1      31.011  23.325  67.693  0.00  0.00    +0.000 A 
ATOM      6  C   UNL     1      31.825  22.666  66.788  0.00  0.00    +0.000 A 
ATOM      7  C   UNL     1      31.171  21.629  66.080  0.00  0.00    +0.000 A 
ATOM      8  C   UNL     1      30.036  21.067  66.452  0.00  0.00    +0.000 A 
ATOM      9  C   UNL     1      29.310  21.734  67.400  0.00  0.00    +0.000 A 
ATOM     10  C   UNL     1      29.828  22.832  68.043  0.00  0.00    +0.000 A 
ATOM     11  O   UNL     1      30.608  24.080  71.873  0.00  0.00    +0.000 OA
ENDROOT
BRANCH   1  15
ATOM     12  C   UNL     1      29.387  20.092  69.070  0.00  0.00    +0.000 A 
ATOM     13  C   UNL     1      28.448  21.064  69.375  0.00  0.00    +0.000 A 
ATOM     14  C   UNL     1      29.006  22.336  69.645  0.00  0.00    +0.000 A 
ATOM     15  C   UNL     1      30.274  22.549  69.947  0.00  0.00    +0.000 A 
ATOM     16  C   UNL     1      31.142  21.525  69.685  0.00  0.00    +0.000 A 
ATOM     17  C   UNL     1      30.681  20.292  69.291  0.00  0.00    +0.000 A 
ENDBRANCH   1  15
BRANCH   6  18
ATOM     18  O   UNL     1      33.190  22.999  66.586  0.00  0.00    +0.000 OA
ATOM     19  H   UNL     1      33.884  22.673  67.228  0.00  0.00    +0.000 HD
ENDBRANCH   6  18
TORSDOF 2
ENDMDL
MODEL 2
REMARK VINA RESULT:    -7.401      2.469      5.962
REMARK INTER + INTRA:           8.472
REMARK INTER:                  -8.068
REMARK INTRA:                  16.540
REMARK UNBOUND:                16.522
REMARK  Name = 
REMARK  2 active torsions:
REMARK  status: ('A' for Active; 'I' for Inactive)
REMARK    1  A    between atoms: C_4  and  C_7
REMARK    2  A    between atoms: C_12  and  O_18
REMARK                            x       y       z     vdW  Elec       q    Type
REMARK                         _______ _______ _______ _____ _____    ______ ____
ROOT
ATOM      1  C   UNL     1      32.405  24.451  67.728  0.00  0.00    +0.000 A 
ATOM      2  C   UNL     1      31.316  23.692  68.285  0.00  0.00    +0.000 A 
ATOM      3  C   UNL     1      30.490  24.267  69.315  0.00  0.00    +0.000 A 
ATOM      4  O   UNL     1      29.529  23.596  69.806  0.00  0.00    +0.000 OA
ATOM      5  C   UNL     1      30.768  25.675  69.814  0.00  0.00    +0.000 A 
ATOM      6  C   UNL     1      30.760  25.927  71.176  0.00  0.00    +0.000 A 
ATOM      7  C   UNL     1      30.738  27.304  71.504  0.00  0.00    +0.000 A 
ATOM      8  C   UNL     1      31.056  28.278  70.671  0.00  0.00    +0.000 A 
ATOM      9  C   UNL     1      31.113  27.949  69.345  0.00  0.00    +0.000 A 
ATOM     10  C   UNL     1      31.012  26.641  68.936  0.00  0.00    +0.000 A 
ATOM     11  O   UNL     1      33.177  23.914  66.766  0.00  0.00    +0.000 OA
ENDROOT
BRANCH   1  15
ATOM     12  C   UNL     1      33.385  28.408  69.002  0.00  0.00    +0.000 A 
ATOM     13  C   UNL     1      32.729  28.242  67.793  0.00  0.00    +0.000 A 
ATOM     14  C   UNL     1      32.260  26.926  67.572  0.00  0.00    +0.000 A 
ATOM     15  C   UNL     1      32.683  25.860  68.227  0.00  0.00    +0.000 A 
ATOM     16  C   UNL     1      33.384  26.092  69.378  0.00  0.00    +0.000 A 
ATOM     17  C   UNL     1      33.765  27.364  69.729  0.00  0.00    +0.000 A 
ENDBRANCH   1  15
BRANCH   6  18
ATOM     18  O   UNL     1      30.773  24.898  72.155  0.00  0.00    +0.000 OA
ATOM     19  H   UNL     1      30.034  24.226  72.182  0.00  0.00    +0.000 HD
ENDBRANCH   6  18
TORSDOF 2
ENDMDL
MODEL 3
REMARK VINA RESULT:    -7.350      3.293      5.850
REMARK INTER + INTRA:           8.527
REMARK INTER:                  -7.993
REMARK INTRA:                  16.520
REMARK UNBOUND:                16.522
REMARK  Name = 
REMARK  2 active torsions:
REMARK  status: ('A' for Active; 'I' for Inactive)
REMARK    1  A    between atoms: C_4  and  C_7
REMARK    2  A    between atoms: C_12  and  O_18
REMARK                            x       y       z     vdW  Elec       q    Type
REMARK                         _______ _______ _______ _____ _____    ______ ____
ROOT
ATOM      1  C   UNL     1      30.385  24.803  69.016  0.00  0.00    +0.000 A 
ATOM      2  C   UNL     1      30.308  24.983  70.442  0.00  0.00    +0.000 A 
ATOM      3  C   UNL     1      31.013  26.070  71.070  0.00  0.00    +0.000 A 
ATOM      4  O   UNL     1      30.943  26.229  72.329  0.00  0.00    +0.000 OA
ATOM      5  C   UNL     1      31.839  27.028  70.227  0.00  0.00    +0.000 A 
ATOM      6  C   UNL     1      33.106  27.388  70.654  0.00  0.00    +0.000 A 
ATOM      7  C   UNL     1      33.653  28.492  69.957  0.00  0.00    +0.000 A 
ATOM      8  C   UNL     1      33.217  28.932  68.791  0.00  0.00    +0.000 A 
ATOM      9  C   UNL     1      31.987  28.486  68.394  0.00  0.00    +0.000 A 
ATOM     10  C   UNL     1      31.331  27.504  69.096  0.00  0.00    +0.000 A 
ATOM     11  O   UNL     1      29.727  23.786  68.429  0.00  0.00    +0.000 OA
ENDROOT
BRANCH   1  15
ATOM     12  C   UNL     1      32.668  27.352  66.460  0.00  0.00    +0.000 A 
ATOM     13  C   UNL     1      31.292  27.506  66.496  0.00  0.00    +0.000 A 
ATOM     14  C   UNL     1      30.660  26.772  67.527  0.00  0.00    +0.000 A 
ATOM     15  C   UNL     1      31.211  25.760  68.173  0.00  0.00    +0.000 A 
ATOM     16  C   UNL     1      32.565  25.621  68.042  0.00  0.00    +0.000 A 
ATOM     17  C   UNL     1      33.272  26.392  67.151  0.00  0.00    +0.000 A 
ENDBRANCH   1  15
BRANCH   6  18
ATOM     18  O   UNL     1      33.794  26.713  71.697  0.00  0.00    +0.000 OA
ATOM     19  H   UNL     1      34.098  27.220  72.504  0.00  0.00    +0.000 HD
ENDBRANCH   6  18
TORSDOF 2
ENDMDL
MODEL 4
REMARK VINA RESULT:    -7.137     16.361     17.316
REMARK INTER + INTRA:           8.759
REMARK INTER:                  -7.762
REMARK INTRA:                  16.522
REMARK UNBOUND:                16.522
REMARK  Name = 
REMARK  2 active torsions:
REMARK  status: ('A' for Active; 'I' for Inactive)
REMARK    1  A    between atoms: C_4  and  C_7
REMARK    2  A    between atoms: C_12  and  O_18
REMARK                            x       y       z     vdW  Elec       q    Type
REMARK                         _______ _______ _______ _____ _____    ______ ____
ROOT
ATOM      1  C   UNL     1      45.811  18.981  73.691  0.00  0.00    +0.000 A 
ATOM      2  C   UNL     1      46.601  20.145  74.000  0.00  0.00    +0.000 A 
ATOM      3  C   UNL     1      47.601  20.603  73.071  0.00  0.00    +0.000 A 
ATOM      4  O   UNL     1      48.297  21.631  73.344  0.00  0.00    +0.000 OA
ATOM      5  C   UNL     1      47.824  19.859  71.765  0.00  0.00    +0.000 A 
ATOM      6  C   UNL     1      49.117  19.586  71.351  0.00  0.00    +0.000 A 
ATOM      7  C   UNL     1      49.209  19.160  70.004  0.00  0.00    +0.000 A 
ATOM      8  C   UNL     1      48.196  18.705  69.291  0.00  0.00    +0.000 A 
ATOM      9  C   UNL     1      46.945  18.948  69.788  0.00  0.00    +0.000 A 
ATOM     10  C   UNL     1      46.775  19.482  71.042  0.00  0.00    +0.000 A 
ATOM     11  O   UNL     1      44.877  18.552  74.559  0.00  0.00    +0.000 OA
ENDROOT
BRANCH   1  15
ATOM     12  C   UNL     1      46.291  16.719  70.100  0.00  0.00    +0.000 A 
ATOM     13  C   UNL     1      45.203  17.568  70.210  0.00  0.00    +0.000 A 
ATOM     14  C   UNL     1      45.256  18.426  71.334  0.00  0.00    +0.000 A 
ATOM     15  C   UNL     1      46.034  18.236  72.385  0.00  0.00    +0.000 A 
ATOM     16  C   UNL     1      47.050  17.334  72.234  0.00  0.00    +0.000 A 
ATOM     17  C   UNL     1      47.140  16.552  71.108  0.00  0.00    +0.000 A 
ENDBRANCH   1  15
BRANCH   6  18
ATOM     18  O   UNL     1      50.248  19.722  72.199  0.00  0.00    +0.000 OA
ATOM     19  H   UNL     1      50.261  19.268  73.090  0.00  0.00    +0.000 HD
ENDBRANCH   6  18
TORSDOF 2
ENDMDL
MODEL 5
REMARK VINA RESULT:    -7.047     16.422     18.153
REMARK INTER + INTRA:           8.857
REMARK INTER:                  -7.666
REMARK INTRA:                  16.523
REMARK UNBOUND:                16.522
REMARK  Name = 
REMARK  2 active torsions:
REMARK  status: ('A' for Active; 'I' for Inactive)
REMARK    1  A    between atoms: C_4  and  C_7
REMARK    2  A    between atoms: C_12  and  O_18
REMARK                            x       y       z     vdW  Elec       q    Type
REMARK                         _______ _______ _______ _____ _____    ______ ____
ROOT
ATOM      1  C   UNL     1      41.579  18.720  80.113  0.00  0.00    +0.000 A 
ATOM      2  C   UNL     1      41.790  17.314  79.881  0.00  0.00    +0.000 A 
ATOM      3  C   UNL     1      41.458  16.358  80.905  0.00  0.00    +0.000 A 
ATOM      4  O   UNL     1      41.644  15.117  80.699  0.00  0.00    +0.000 OA
ATOM      5  C   UNL     1      40.885  16.831  82.230  0.00  0.00    +0.000 A 
ATOM      6  C   UNL     1      41.377  16.300  83.411  0.00  0.00    +0.000 A 
ATOM      7  C   UNL     1      40.581  16.590  84.545  0.00  0.00    +0.000 A 
ATOM      8  C   UNL     1      39.675  17.549  84.599  0.00  0.00    +0.000 A 
ATOM      9  C   UNL     1      39.279  18.079  83.402  0.00  0.00    +0.000 A 
ATOM     10  C   UNL     1      39.922  17.746  82.235  0.00  0.00    +0.000 A 
ATOM     11  O   UNL     1      41.890  19.614  79.156  0.00  0.00    +0.000 OA
ENDROOT
BRANCH   1  15
ATOM     12  C   UNL     1      40.017  20.273  83.772  0.00  0.00    +0.000 A 
ATOM     13  C   UNL     1      39.189  20.225  82.663  0.00  0.00    +0.000 A 
ATOM     14  C   UNL     1      39.729  19.498  81.576  0.00  0.00    +0.000 A 
ATOM     15  C   UNL     1      41.007  19.194  81.439  0.00  0.00    +0.000 A 
ATOM     16  C   UNL     1      41.786  19.327  82.554  0.00  0.00    +0.000 A 
ATOM     17  C   UNL     1      41.292  19.909  83.696  0.00  0.00    +0.000 A 
ENDBRANCH   1  15
BRANCH   6  18
ATOM     18  O   UNL     1      42.571  15.534  83.478  0.00  0.00    +0.000 OA
ATOM     19  H   UNL     1      43.424  15.964  83.777  0.00  0.00    +0.000 HD
ENDBRANCH   6  18
TORSDOF 2
ENDMDL
