MODEL 1
REMARK VINA RESULT:    -7.654      0.000      0.000
REMARK INTER + INTRA:           7.543
REMARK INTER:                  -9.038
REMARK INTRA:                  16.581
REMARK UNBOUND:                16.539
REMARK  Name = 
REMARK  5 active torsions:
REMARK  status: ('A' for Active; 'I' for Inactive)
REMARK    1  A    between atoms: C_1  and  O_2
REMARK    2  A    between atoms: O_2  and  C_3
REMARK    3  A    between atoms: C_6  and  C_7
REMARK    4  A    between atoms: C_19  and  O_20
REMARK    5  A    between atoms: O_20  and  C_21
REMARK                            x       y       z     vdW  Elec       q    Type
REMARK                         _______ _______ _______ _____ _____    ______ ____
ROOT
ATOM      1  C   UNL     1      47.503  20.940  73.088  0.00  0.00    +0.000 A 
ATOM      2  C   UNL     1      46.667  20.509  74.180  0.00  0.00    +0.000 A 
ATOM      3  C   UNL     1      46.014  19.228  74.125  0.00  0.00    +0.000 A 
ATOM      4  O   UNL     1      45.276  18.848  75.089  0.00  0.00    +0.000 OA
ATOM      5  C   UNL     1      46.204  18.328  72.915  0.00  0.00    +0.000 A 
ATOM      6  C   UNL     1      45.051  17.773  72.385  0.00  0.00    +0.000 A 
ATOM      7  C   UNL     1      45.289  16.758  71.429  0.00  0.00    +0.000 A 
ATOM      8  C   UNL     1      46.438  16.572  70.805  0.00  0.00    +0.000 A 
ATOM      9  C   UNL     1      47.528  17.203  71.336  0.00  0.00    +0.000 A 
ATOM     10  C   UNL     1      47.391  18.110  72.359  0.00  0.00    +0.000 A 
ATOM     11  O   UNL     1      48.113  22.137  73.139  0.00  0.00    +0.000 OA
ENDROOT
BRANCH   1  15
ATOM     12  C   UNL     1      48.147  18.593  69.578  0.00  0.00    +0.000 A 
ATOM     13  C   UNL     1      49.164  18.682  70.514  0.00  0.00    +0.000 A 
ATOM     14  C   UNL     1      48.774  19.295  71.728  0.00  0.00    +0.000 A 
ATOM     15  C   UNL     1      47.693  20.040  71.878  0.00  0.00    +0.000 A 
ATOM     16  C   UNL     1      46.757  19.960  70.885  0.00  0.00    +0.000 A 
ATOM     17  C   UNL     1      47.015  19.270  69.724  0.00  0.00    +0.000 A 
BRANCH  12  19
ATOM     18  C   UNL     1      49.193  18.037  67.423  0.00  0.00    +0.000 C 
ATOM     19  O   UNL     1      48.314  17.702  68.485  0.00  0.00    +0.000 OA
ENDBRANCH  12  19
BRANCH  17  20
ATOM     20  O   UNL     1      46.062  19.283  68.672  0.00  0.00    +0.000 OA
ATOM     21  C   UNL     1      46.018  20.377  67.768  0.00  0.00    +0.000 C 
ENDBRANCH  17  20
ENDBRANCH   1  15
TORSDOF 3
ENDMDL
MODEL 2
REMARK VINA RESULT:    -7.496     15.650     17.531
REMARK INTER + INTRA:           7.728
REMARK INTER:                  -8.717
REMARK INTRA:                  16.445
REMARK UNBOUND:                16.539
REMARK  Name = 
REMARK  5 active torsions:
REMARK  status: ('A' for Active; 'I' for Inactive)
REMARK    1  A    between atoms: C_1  and  O_2
REMARK    2  A    between atoms: O_2  and  C_3
REMARK    3  A    between atoms: C_6  and  C_7
REMARK    4  A    between atoms: C_19  and  O_20
REMARK    5  A    between atoms: O_20  and  C_21
REMARK                            x       y       z     vdW  Elec       q    Type
REMARK                         _______ _______ _______ _____ _____    ______ ____
ROOT
ATOM      1  C   UNL     1      31.999  23.868  67.550  0.00  0.00    +0.000 A 
ATOM      2  C   UNL     1      31.167  23.107  68.447  0.00  0.00    +0.000 A 
ATOM      3  C   UNL     1      30.509  23.759  69.548  0.00  0.00    +0.000 A 
ATOM      4  O   UNL     1      29.775  23.087  70.339  0.00  0.00    +0.000 OA
ATOM      5  C   UNL     1      30.691  25.253  69.766  0.00  0.00    +0.000 A 
ATOM      6  C   UNL     1      30.979  25.644  71.063  0.00  0.00    +0.000 A 
ATOM      7  C   UNL     1      30.895  27.041  71.273  0.00  0.00    +0.000 A 
ATOM      8  C   UNL     1      30.907  27.945  70.309  0.00  0.00    +0.000 A 
ATOM      9  C   UNL     1      30.685  27.485  69.041  0.00  0.00    +0.000 A 
ATOM     10  C   UNL     1      30.624  26.138  68.778  0.00  0.00    +0.000 A 
ATOM     11  O   UNL     1      32.615  23.259  66.521  0.00  0.00    +0.000 OA
ENDROOT
BRANCH   1  15
ATOM     12  C   UNL     1      32.673  28.063  67.988  0.00  0.00    +0.000 A 
ATOM     13  C   UNL     1      31.783  27.630  67.019  0.00  0.00    +0.000 A 
ATOM     14  C   UNL     1      31.469  26.254  67.103  0.00  0.00    +0.000 A 
ATOM     15  C   UNL     1      32.181  25.362  67.768  0.00  0.00    +0.000 A 
ATOM     16  C   UNL     1      33.091  25.854  68.661  0.00  0.00    +0.000 A 
ATOM     17  C   UNL     1      33.358  27.201  68.729  0.00  0.00    +0.000 A 
BRANCH  12  19
ATOM     18  C   UNL     1      32.918  30.355  67.131  0.00  0.00    +0.000 C 
ATOM     19  O   UNL     1      32.786  29.459  68.224  0.00  0.00    +0.000 OA
ENDBRANCH  12  19
BRANCH  17  20
ATOM     20  O   UNL     1      34.375  27.673  69.599  0.00  0.00    +0.000 OA
ATOM     21  C   UNL     1      34.517  27.112  70.896  0.00  0.00    +0.000 C 
ENDBRANCH  17  20
ENDBRANCH   1  15
TORSDOF 3
ENDMDL
MODEL 3
REMARK VINA RESULT:    -7.483      2.178      5.326
REMARK INTER + INTRA:           7.744
REMARK INTER:                  -8.727
REMARK INTRA:                  16.471
REMARK UNBOUND:                16.539
REMARK  Name = 
REMARK  5 active torsions:
REMARK  status: ('A' for Active; 'I' for Inactive)
REMARK    1  A    between atoms: C_1  and  O_2
REMARK    2  A    between atoms: O_2  and  C_3
REMARK    3  A    between atoms: C_6  and  C_7
REMARK    4  A    between atoms: C_19  and  O_20
REMARK    5  A    between atoms: O_20  and  C_21
REMARK                            x       y       z     vdW  Elec       q    Type
REMARK                         _______ _______ _______ _____ _____    ______ ____
ROOT
ATOM      1  C   UNL     1      45.927  20.555  66.776  0.00  0.00    +0.000 A 
ATOM      2  C   UNL     1      47.273  20.717  66.286  0.00  0.00    +0.000 A 
ATOM      3  C   UNL     1      48.351  19.975  66.884  0.00  0.00    +0.000 A 
ATOM      4  O   UNL     1      49.538  20.118  66.452  0.00  0.00    +0.000 OA
ATOM      5  C   UNL     1      48.071  19.019  68.033  0.00  0.00    +0.000 A 
ATOM      6  C   UNL     1      48.920  19.118  69.123  0.00  0.00    +0.000 A 
ATOM      7  C   UNL     1      48.787  18.060  70.052  0.00  0.00    +0.000 A 
ATOM      8  C   UNL     1      47.747  17.247  70.118  0.00  0.00    +0.000 A 
ATOM      9  C   UNL     1      46.907  17.246  69.039  0.00  0.00    +0.000 A 
ATOM     10  C   UNL     1      47.054  18.165  68.028  0.00  0.00    +0.000 A 
ATOM     11  O   UNL     1      44.919  21.249  66.217  0.00  0.00    +0.000 OA
ENDROOT
BRANCH   1  15
ATOM     12  C   UNL     1      44.916  17.948  70.004  0.00  0.00    +0.000 A 
ATOM     13  C   UNL     1      44.659  17.532  68.708  0.00  0.00    +0.000 A 
ATOM     14  C   UNL     1      45.227  18.365  67.716  0.00  0.00    +0.000 A 
ATOM     15  C   UNL     1      45.647  19.600  67.925  0.00  0.00    +0.000 A 
ATOM     16  C   UNL     1      45.815  19.972  69.229  0.00  0.00    +0.000 A 
ATOM     17  C   UNL     1      45.405  19.155  70.256  0.00  0.00    +0.000 A 
BRANCH  12  19
ATOM     18  C   UNL     1      44.251  15.710  70.778  0.00  0.00    +0.000 C 
ATOM     19  O   UNL     1      44.709  17.024  71.062  0.00  0.00    +0.000 OA
ENDBRANCH  12  19
BRANCH  17  20
ATOM     20  O   UNL     1      45.506  19.609  71.597  0.00  0.00    +0.000 OA
ATOM     21  C   UNL     1      46.637  20.363  72.009  0.00  0.00    +0.000 C 
ENDBRANCH  17  20
ENDBRANCH   1  15
TORSDOF 3
ENDMDL
MODEL 4
REMARK VINA RESULT:    -7.320     14.477     15.849
REMARK INTER + INTRA:           7.936
REMARK INTER:                  -8.603
REMARK INTRA:                  16.539
REMARK UNBOUND:                16.539
REMARK  Name = 
REMARK  5 active torsions:
REMARK  status: ('A' for Active; 'I' for Inactive)
REMARK    1  A    between atoms: C_1  and  O_2
REMARK    2  A    between atoms: O_2  and  C_3
REMARK    3  A    between atoms: C_6  and  C_7
REMARK    4  A    between atoms: C_19  and  O_20
REMARK    5  A    between atoms: O_20  and  C_21
REMARK                            x       y       z     vdW  Elec       q    Type
REMARK                         _______ _______ _______ _____ _____    ______ ____
ROOT
ATOM      1  C   UNL     1      32.020  26.530  70.232  0.00  0.00    +0.000 A 
ATOM      2  C   UNL     1      31.657  26.268  71.602  0.00  0.00    +0.000 A 
ATOM      3  C   UNL     1      31.621  24.915  72.091  0.00  0.00    +0.000 A 
ATOM      4  O   UNL     1      31.301  24.684  73.299  0.00  0.00    +0.000 OA
ATOM      5  C   UNL     1      31.966  23.761  71.163  0.00  0.00    +0.000 A 
ATOM      6  C   UNL     1      31.091  22.687  71.182  0.00  0.00    +0.000 A 
ATOM      7  C   UNL     1      31.571  21.544  70.502  0.00  0.00    +0.000 A 
ATOM      8  C   UNL     1      32.559  21.554  69.625  0.00  0.00    +0.000 A 
ATOM      9  C   UNL     1      33.346  22.672  69.607  0.00  0.00    +0.000 A 
ATOM     10  C   UNL     1      33.013  23.782  70.346  0.00  0.00    +0.000 A 
ATOM     11  O   UNL     1      32.054  27.794  69.775  0.00  0.00    +0.000 OA
ENDROOT
BRANCH   1  15
ATOM     12  C   UNL     1      32.998  23.445  67.445  0.00  0.00    +0.000 A 
ATOM     13  C   UNL     1      34.027  24.182  68.010  0.00  0.00    +0.000 A 
ATOM     14  C   UNL     1      33.615  25.020  69.073  0.00  0.00    +0.000 A 
ATOM     15  C   UNL     1      32.364  25.376  69.304  0.00  0.00    +0.000 A 
ATOM     16  C   UNL     1      31.397  24.654  68.663  0.00  0.00    +0.000 A 
ATOM     17  C   UNL     1      31.727  23.724  67.706  0.00  0.00    +0.000 A 
BRANCH  12  19
ATOM     18  C   UNL     1      34.688  21.915  66.521  0.00  0.00    +0.000 C 
ATOM     19  O   UNL     1      33.335  22.332  66.630  0.00  0.00    +0.000 OA
ENDBRANCH  12  19
BRANCH  17  20
ATOM     20  O   UNL     1      30.699  23.058  66.989  0.00  0.00    +0.000 OA
ATOM     21  C   UNL     1      29.514  22.653  67.660  0.00  0.00    +0.000 C 
ENDBRANCH  17  20
ENDBRANCH   1  15
TORSDOF 3
ENDMDL
MODEL 5
REMARK VINA RESULT:    -7.289     14.692     16.699
REMARK INTER + INTRA:           7.972
REMARK INTER:                  -8.555
REMARK INTRA:                  16.527
REMARK UNBOUND:                16.539
REMARK  Name = 
REMARK  5 active torsions:
REMARK  status: ('A' for Active; 'I' for Inactive)
REMARK    1  A    between atoms: C_1  and  O_2
REMARK    2  A    between atoms: O_2  and  C_3
REMARK    3  A    between atoms: C_6  and  C_7
REMARK    4  A    between atoms: C_19  and  O_20
REMARK    5  A    between atoms: O_20  and  C_21
REMARK                            x       y       z     vdW  Elec       q    Type
REMARK                         _______ _______ _______ _____ _____    ______ ____
ROOT
ATOM      1  C   UNL     1      30.866  21.949  67.976  0.00  0.00    +0.000 A 
ATOM      2  C   UNL     1      31.933  21.763  67.026  0.00  0.00    +0.000 A 
ATOM      3  C   UNL     1      33.175  22.471  67.190  0.00  0.00    +0.000 A 
ATOM      4  O   UNL     1      34.117  22.307  66.351  0.00  0.00    +0.000 OA
ATOM      5  C   UNL     1      33.363  23.416  68.366  0.00  0.00    +0.000 A 
ATOM      6  C   UNL     1      33.898  24.658  68.065  0.00  0.00    +0.000 A 
ATOM      7  C   UNL     1      34.286  25.406  69.201  0.00  0.00    +0.000 A 
ATOM      8  C   UNL     1      33.876  25.162  70.434  0.00  0.00    +0.000 A 
ATOM      9  C   UNL     1      33.293  23.945  70.652  0.00  0.00    +0.000 A 
ATOM     10  C   UNL     1      33.003  23.103  69.605  0.00  0.00    +0.000 A 
ATOM     11  O   UNL     1      29.705  21.288  67.823  0.00  0.00    +0.000 OA
ENDROOT
BRANCH   1  15
ATOM     12  C   UNL     1      31.164  24.571  71.335  0.00  0.00    +0.000 A 
ATOM     13  C   UNL     1      31.302  23.208  71.541  0.00  0.00    +0.000 A 
ATOM     14  C   UNL     1      31.406  22.455  70.347  0.00  0.00    +0.000 A 
ATOM     15  C   UNL     1      31.054  22.894  69.152  0.00  0.00    +0.000 A 
ATOM     16  C   UNL     1      30.865  24.243  69.031  0.00  0.00    +0.000 A 
ATOM     17  C   UNL     1      30.880  25.061  70.135  0.00  0.00    +0.000 A 
BRANCH  12  19
ATOM     18  C   UNL     1      31.864  24.925  73.666  0.00  0.00    +0.000 C 
ATOM     19  O   UNL     1      31.403  25.445  72.428  0.00  0.00    +0.000 OA
ENDBRANCH  12  19
BRANCH  17  20
ATOM     20  O   UNL     1      30.587  26.442  69.990  0.00  0.00    +0.000 OA
ATOM     21  C   UNL     1      30.984  27.132  68.813  0.00  0.00    +0.000 C 
ENDBRANCH  17  20
ENDBRANCH   1  15
TORSDOF 3
ENDMDL
